calculator: aims
length_unit: angstrom
nqpoint: 255    
npath: 5      
segment_nqpoint:
- 51
- 51
- 51
- 51
- 51
reciprocal_lattice:
- [  -0.15810583,   0.15810583,   0.15810583 ] # a*
- [   0.15810583,  -0.15810583,   0.15810583 ] # b*
- [   0.15810583,   0.15810583,  -0.15810583 ] # c*
natom: 2      
lattice:
- [     0.000000000000000,     3.162438790000000,     3.162438790000000 ] # a
- [     3.162438790000000,     0.000000000000000,     3.162438790000000 ] # b
- [     3.162438790000000,     3.162438790000000,     0.000000000000000 ] # c
points:
- symbol: Ba # 1
  coordinates: [  0.000000000000000,  0.000000000000000,  0.000000000000000 ]
  mass: 137.327000
- symbol: S  # 2
  coordinates: [  0.500000000000000,  0.500000000000000,  0.500000000000000 ]
  mass: 32.065000

phonon:
- q-position: [    0.0000000,    0.0000000,    0.5000000 ]
  distance:    0.0000000
  band:
  - # 1
    frequency:    2.2392009751
    eigenvector:
    - # atom 1
      - [  0.76037367819338, -0.00000000000000 ]
      - [ -0.12255550922201, -0.00000000000000 ]
      - [  0.63781816897138, -0.00000000000000 ]
    - # atom 2
      - [ -0.00000000000000, -0.00000000000000 ]
      - [  0.00000000000000,  0.00000000000000 ]
      - [ -0.00000000000000, -0.00000000000000 ]
  - # 2
    frequency:    2.2392009751
    eigenvector:
    - # atom 1
      - [ -0.29748703530966,  0.00000000000000 ]
      - [  0.80724643933931, -0.00000000000000 ]
      - [  0.50975940402965, -0.00000000000000 ]
    - # atom 2
      - [ -0.00000000000000, -0.00000000000000 ]
      - [ -0.00000000000000,  0.00000000000000 ]
      - [ -0.00000000000000, -0.00000000000000 ]
  - # 3
    frequency:    4.0493756586
    eigenvector:
    - # atom 1
      - [ -0.57735026918963,  0.00000000000000 ]
      - [ -0.57735026918963,  0.00000000000000 ]
      - [  0.57735026918963,  0.00000000000000 ]
    - # atom 2
      - [  0.00000000000000, -0.00000000000000 ]
      - [  0.00000000000000, -0.00000000000000 ]
      - [  0.00000000000000, -0.00000000000000 ]
  - # 4
    frequency:    5.0283386634
    eigenvector:
    - # atom 1
      - [ -0.00000000000000,  0.00000000000000 ]
      - [ -0.00000000000000,  0.00000000000000 ]
      - [  0.00000000000000,  0.00000000000000 ]
    - # atom 2
      - [ -0.22376820377534,  0.30219053923366 ]
      - [  0.69819246452817, -0.37514661558564 ]
      - [  0.47442426075283, -0.07295607635198 ]
  - # 5
    frequency:    5.0283386634
    eigenvector:
    - # atom 1
      - [  0.00000000000000,  0.00000000000000 ]
      - [ -0.00000000000000,  0.00000000000000 ]
      - [ -0.00000000000000,  0.00000000000000 ]
    - # atom 2
      - [ -0.67797898493629,  0.25616368132163 ]
      - [  0.02030774377528, -0.19505527806277 ]
      - [ -0.65767124116102,  0.06110840325886 ]
  - # 6
    frequency:    6.7315281763
    eigenvector:
    - # atom 1
      - [  0.00000000000000,  0.00000000000000 ]
      - [ -0.00000000000000, -0.00000000000000 ]
      - [ -0.00000000000000, -0.00000000000000 ]
    - # atom 2
      - [ -0.55414180062133,  0.16204998653959 ]
      - [ -0.55414180062133,  0.16204998653959 ]
      - [  0.55414180062133, -0.16204998653959 ]

- q-position: [    0.0000000,    0.0000000,    0.4900000 ]
  distance:    0.0027385
  band:
  - # 1
    frequency:    2.2381904997
    eigenvector:
    - # atom 1
      - [ -0.76888867002601, -0.00000000000000 ]
      - [  0.14668495870972,  0.00002256069147 ]
      - [ -0.62220371131629,  0.00002256069147 ]
    - # atom 2
      - [ -0.00961267759243,  0.00000000000000 ]
      - [  0.00183386135172,  0.00000028205469 ]
      - [ -0.00777881624071,  0.00000028205469 ]
  - # 2
    frequency:    2.2381904997
    eigenvector:
    - # atom 1
      - [ -0.27454088105808,  0.00000000000000 ]
      - [  0.80314755845586, -0.00006318425145 ]
      - [  0.52860667739778, -0.00006318425145 ]
    - # atom 2
      - [ -0.00343232132093,  0.00000000000000 ]
      - [  0.01004098361643, -0.00000078993210 ]
      - [  0.00660866229549, -0.00000078993210 ]
  - # 3
    frequency:    4.0475466820
    eigenvector:
    - # atom 1
      - [ -0.57732808705169,  0.00000000000000 ]
      - [ -0.57732808705169,  0.00000000000000 ]
      - [  0.57732808705169,  0.00000000000000 ]
    - # atom 2
      - [ -0.00506095194257,  0.00000000000000 ]
      - [ -0.00506095194257, -0.00000000000000 ]
      - [  0.00506095194257, -0.00000000000000 ]
  - # 4
    frequency:    5.0276994768
    eigenvector:
    - # atom 1
      - [  0.01020707598415,  0.00000000000000 ]
      - [ -0.00510353799207,  0.00000000000000 ]
      - [  0.00510353799207,  0.00000000000000 ]
    - # atom 2
      - [ -0.81643277878005,  0.00000000000000 ]
      - [  0.40821638939003, -0.00000000000000 ]
      - [ -0.40821638939003,  0.00000000000000 ]
  - # 5
    frequency:    5.0276994768
    eigenvector:
    - # atom 1
      - [  0.00000000000000,  0.00000000000000 ]
      - [  0.00883958626035, -0.00000385428120 ]
      - [  0.00883958626035, -0.00000385428120 ]
    - # atom 2
      - [ -0.00000000000000, -0.00000000000000 ]
      - [ -0.70705145969429,  0.00030829216104 ]
      - [ -0.70705145969430,  0.00030829216104 ]
  - # 6
    frequency:    6.7295122998
    eigenvector:
    - # atom 1
      - [ -0.00506095194257,  0.00000000000000 ]
      - [ -0.00506095194257,  0.00000000000000 ]
      - [  0.00506095194257,  0.00000000000000 ]
    - # atom 2
      - [  0.57732808705169, -0.00000000000000 ]
      - [  0.57732808705169, -0.00000000000000 ]
      - [ -0.57732808705169,  0.00000000000000 ]

- q-position: [    0.0000000,    0.0000000,    0.4800000 ]
  distance:    0.0054769
  band:
  - # 1
    frequency:    2.2351593289
    eigenvector:
    - # atom 1
      - [  0.81570024551266,  0.00000000000000 ]
      - [ -0.43358704053595, -0.00002249378030 ]
      - [  0.38211320497671, -0.00002249378030 ]
    - # atom 2
      - [  0.02039700905913, -0.00000000000000 ]
      - [ -0.01084206954992, -0.00000056246868 ]
      - [  0.00955493950921, -0.00000056246868 ]
  - # 2
    frequency:    2.2351593289
    eigenvector:
    - # atom 1
      - [ -0.02971844416666,  0.00000000000000 ]
      - [ -0.69155764260331, -0.00061740049407 ]
      - [ -0.72127608676996, -0.00061740049407 ]
    - # atom 2
      - [ -0.00074312515930,  0.00000000000000 ]
      - [ -0.01729275868027, -0.00001543842060 ]
      - [ -0.01803588383957, -0.00001543842060 ]
  - # 3
    frequency:    4.0420607952
    eigenvector:
    - # atom 1
      - [  0.57726141099492,  0.00000000000000 ]
      - [  0.57726141099492, -0.00000000000000 ]
      - [ -0.57726141099492, -0.00000000000000 ]
    - # atom 2
      - [  0.01012900338060, -0.00000000000000 ]
      - [  0.01012900338060,  0.00000000000000 ]
      - [ -0.01012900338060,  0.00000000000000 ]
  - # 4
    frequency:    5.0257843970
    eigenvector:
    - # atom 1
      - [  0.00404746246025,  0.00000000000000 ]
      - [  0.01530128490507,  0.00000343657265 ]
      - [  0.01934874736533,  0.00000343657265 ]
    - # atom 2
      - [ -0.16186275708167, -0.00000000000000 ]
      - [ -0.61191627740855, -0.00013743255909 ]
      - [ -0.77377903449022, -0.00013743255909 ]
  - # 5
    frequency:    5.0257843970
    eigenvector:
    - # atom 1
      - [  0.02000520585231,  0.00000000000000 ]
      - [ -0.01350780816864, -0.00000069528896 ]
      - [  0.00649739768367, -0.00000069528896 ]
    - # atom 2
      - [ -0.80003157707870,  0.00000000000000 ]
      - [  0.54019304534094,  0.00002780541864 ]
      - [ -0.25983853173776,  0.00002780541864 ]
  - # 6
    frequency:    6.7234697422
    eigenvector:
    - # atom 1
      - [  0.01012900338060,  0.00000000000000 ]
      - [  0.01012900338060, -0.00000000000000 ]
      - [ -0.01012900338060, -0.00000000000000 ]
    - # atom 2
      - [ -0.57726141099492,  0.00000000000000 ]
      - [ -0.57726141099492,  0.00000000000000 ]
      - [  0.57726141099492, -0.00000000000000 ]

- q-position: [    0.0000000,    0.0000000,    0.4700000 ]
  distance:    0.0082154
  band:
  - # 1
    frequency:    2.2301082317
    eigenvector:
    - # atom 1
      - [ -0.39119102722984,  0.00000000000000 ]
      - [ -0.42450489272315,  0.00030412176236 ]
      - [ -0.81569591995299,  0.00030412176236 ]
    - # atom 2
      - [ -0.01467427732014,  0.00000000000000 ]
      - [ -0.01592394018771,  0.00001140815297 ]
      - [ -0.03059821750785,  0.00001140815297 ]
  - # 2
    frequency:    2.2301082317
    eigenvector:
    - # atom 1
      - [  0.71603035916148,  0.00000000000000 ]
      - [ -0.69679650615062,  0.00016615176032 ]
      - [  0.01923385301086,  0.00016615176032 ]
    - # atom 2
      - [  0.02685958349909, -0.00000000000000 ]
      - [ -0.02613808716260,  0.00000623265065 ]
      - [  0.00072149633650,  0.00000623265065 ]
  - # 3
    frequency:    4.0329211210
    eigenvector:
    - # atom 1
      - [  0.57714985223764,  0.00000000000000 ]
      - [  0.57714985223764, -0.00000000000000 ]
      - [ -0.57714985223764,  0.00000000000000 ]
    - # atom 2
      - [  0.01521122596649, -0.00000000000000 ]
      - [  0.01521122596649,  0.00000000000000 ]
      - [ -0.01521122596649, -0.00000000000000 ]
  - # 4
    frequency:    5.0226008558
    eigenvector:
    - # atom 1
      - [  0.00000000000000,  0.00000000000000 ]
      - [  0.02650619069389,  0.00002419419507 ]
      - [  0.02650619069389,  0.00002419419507 ]
    - # atom 2
      - [  0.00000000000000, -0.00000000000000 ]
      - [ -0.70660951400042, -0.00064497568213 ]
      - [ -0.70660951400042, -0.00064497568213 ]
  - # 5
    frequency:    5.0226008558
    eigenvector:
    - # atom 1
      - [ -0.03060672541474,  0.00000000000000 ]
      - [  0.01530336270737, -0.00000000000000 ]
      - [ -0.01530336270737,  0.00000000000000 ]
    - # atom 2
      - [  0.81592272613652, -0.00000000000000 ]
      - [ -0.40796136306826,  0.00000000000000 ]
      - [  0.40796136306826, -0.00000000000000 ]
  - # 6
    frequency:    6.7134157275
    eigenvector:
    - # atom 1
      - [  0.01521122596649,  0.00000000000000 ]
      - [  0.01521122596649, -0.00000000000000 ]
      - [ -0.01521122596649,  0.00000000000000 ]
    - # atom 2
      - [ -0.57714985223764,  0.00000000000000 ]
      - [ -0.57714985223764,  0.00000000000000 ]
      - [  0.57714985223764, -0.00000000000000 ]

- q-position: [    0.0000000,    0.0000000,    0.4600000 ]
  distance:    0.0109539
  band:
  - # 1
    frequency:    2.2230385019
    eigenvector:
    - # atom 1
      - [  0.81415196340866,  0.00000000000000 ]
      - [ -0.44731839710100, -0.00005616806622 ]
      - [  0.36683356630766, -0.00005616806622 ]
    - # atom 2
      - [  0.04072555293587, -0.00000000000000 ]
      - [ -0.02237578471721, -0.00000280964200 ]
      - [  0.01834976821866, -0.00000280964200 ]
  - # 2
    frequency:    2.2230385019
    eigenvector:
    - # atom 1
      - [ -0.04646798398625,  0.00000000000000 ]
      - [ -0.68184160408181, -0.00098410426867 ]
      - [ -0.72830958806806, -0.00098410426867 ]
    - # atom 2
      - [ -0.00232442397330, -0.00000000000000 ]
      - [ -0.03410711708494, -0.00004922691621 ]
      - [ -0.03643154105823, -0.00004922691621 ]
  - # 3
    frequency:    4.0201328435
    eigenvector:
    - # atom 1
      - [  0.57699276334859,  0.00000000000000 ]
      - [  0.57699276334859, -0.00000000000000 ]
      - [ -0.57699276334859,  0.00000000000000 ]
    - # atom 2
      - [  0.02031463454474, -0.00000000000000 ]
      - [  0.02031463454474, -0.00000000000000 ]
      - [ -0.02031463454474, -0.00000000000000 ]
  - # 4
    frequency:    5.0181612147
    eigenvector:
    - # atom 1
      - [  0.00000000000000,  0.00000000000000 ]
      - [  0.03532675964972,  0.00001609985439 ]
      - [  0.03532675964973,  0.00001609985439 ]
    - # atom 2
      - [ -0.00000000000000,  0.00000000000000 ]
      - [ -0.70622370124679, -0.00032185512830 ]
      - [ -0.70622370124679, -0.00032185512830 ]
  - # 5
    frequency:    5.0181612147
    eigenvector:
    - # atom 1
      - [ -0.04079183262296,  0.00000000000000 ]
      - [  0.02039591631148, -0.00000000000000 ]
      - [ -0.02039591631148,  0.00000000000000 ]
    - # atom 2
      - [  0.81547697273309, -0.00000000000000 ]
      - [ -0.40773848636655,  0.00000000000000 ]
      - [  0.40773848636655, -0.00000000000000 ]
  - # 6
    frequency:    6.6993756604
    eigenvector:
    - # atom 1
      - [  0.02031463454474,  0.00000000000000 ]
      - [  0.02031463454474,  0.00000000000000 ]
      - [ -0.02031463454474,  0.00000000000000 ]
    - # atom 2
      - [ -0.57699276334859,  0.00000000000000 ]
      - [ -0.57699276334859,  0.00000000000000 ]
      - [  0.57699276334859, -0.00000000000000 ]

- q-position: [    0.0000000,    0.0000000,    0.4500000 ]
  distance:    0.0136924
  band:
  - # 1
    frequency:    2.2139519750
    eigenvector:
    - # atom 1
      - [ -0.79014489623136, -0.00000000000000 ]
      - [  0.22242992057217,  0.00006715493241 ]
      - [ -0.56771497565919,  0.00006715493241 ]
    - # atom 2
      - [ -0.04941348103223,  0.00000000000000 ]
      - [  0.01391015333215,  0.00000419968413 ]
      - [ -0.03550332770008,  0.00000419968413 ]
  - # 2
    frequency:    2.2139519750
    eigenvector:
    - # atom 1
      - [ -0.19935043458325,  0.00000000000000 ]
      - [  0.78396071832986, -0.00026617512630 ]
      - [  0.58461028374662, -0.00026617512630 ]
    - # atom 2
      - [ -0.01246682597715,  0.00000000000000 ]
      - [  0.04902673961443, -0.00001664585776 ]
      - [  0.03655991363729, -0.00001664585776 ]
  - # 3
    frequency:    4.0037031765
    eigenvector:
    - # atom 1
      - [ -0.57678923922101,  0.00000000000000 ]
      - [ -0.57678923922101,  0.00000000000000 ]
      - [  0.57678923922101, -0.00000000000000 ]
    - # atom 2
      - [ -0.02544615594123,  0.00000000000000 ]
      - [ -0.02544615594123,  0.00000000000000 ]
      - [  0.02544615594123,  0.00000000000000 ]
  - # 4
    frequency:    5.0124827263
    eigenvector:
    - # atom 1
      - [ -0.03203033735426, -0.00000000000000 ]
      - [  0.05034268551252, -0.00000989423246 ]
      - [  0.01831234815826, -0.00000989423246 ]
    - # atom 2
      - [  0.51218021997937, -0.00000000000000 ]
      - [ -0.80500331466932,  0.00015821344934 ]
      - [ -0.29282309468995,  0.00015821344934 ]
  - # 5
    frequency:    5.0124827263
    eigenvector:
    - # atom 1
      - [ -0.03963800381754,  0.00000000000000 ]
      - [ -0.00792008277956,  0.00000799524630 ]
      - [ -0.04755808659711,  0.00000799524630 ]
    - # atom 2
      - [  0.63383039929533, -0.00000000000000 ]
      - [  0.12664586374557, -0.00012784776397 ]
      - [  0.76047626304090, -0.00012784776397 ]
  - # 6
    frequency:    6.6813851715
    eigenvector:
    - # atom 1
      - [ -0.02544615594123,  0.00000000000000 ]
      - [ -0.02544615594123,  0.00000000000000 ]
      - [  0.02544615594123, -0.00000000000000 ]
    - # atom 2
      - [  0.57678923922101, -0.00000000000000 ]
      - [  0.57678923922101, -0.00000000000000 ]
      - [ -0.57678923922101,  0.00000000000000 ]

- q-position: [    0.0000000,    0.0000000,    0.4400000 ]
  distance:    0.0164308
  band:
  - # 1
    frequency:    2.2028510541
    eigenvector:
    - # atom 1
      - [  0.80853253425574,  0.00000000000000 ]
      - [ -0.48736422304349, -0.00012969252890 ]
      - [  0.32116831121225, -0.00012969252890 ]
    - # atom 2
      - [  0.06068680677024, -0.00000000000000 ]
      - [ -0.03658056686339, -0.00000973445731 ]
      - [  0.02410623990685, -0.00000973445731 ]
  - # 2
    frequency:    2.2028510541
    eigenvector:
    - # atom 1
      - [ -0.09595337129743,  0.00000000000000 ]
      - [ -0.65223217600417, -0.00109282902359 ]
      - [ -0.74818554730160, -0.00109282902359 ]
    - # atom 2
      - [ -0.00720206479785,  0.00000000000000 ]
      - [ -0.04895521992932, -0.00008202552276 ]
      - [ -0.05615728472717, -0.00008202552276 ]
  - # 3
    frequency:    3.9836413214
    eigenvector:
    - # atom 1
      - [  0.57653811877339,  0.00000000000000 ]
      - [  0.57653811877339, -0.00000000000000 ]
      - [ -0.57653811877339,  0.00000000000000 ]
    - # atom 2
      - [  0.03061259437839, -0.00000000000000 ]
      - [  0.03061259437839,  0.00000000000000 ]
      - [ -0.03061259437839,  0.00000000000000 ]
  - # 4
    frequency:    5.0055874814
    eigenvector:
    - # atom 1
      - [  0.00494910804312,  0.00000000000000 ]
      - [  0.05027672308838,  0.00003464743664 ]
      - [  0.05522583113149,  0.00003464743664 ]
    - # atom 2
      - [ -0.06593714649640,  0.00000000000000 ]
      - [ -0.66983861066573, -0.00046160905869 ]
      - [ -0.73577575716212, -0.00046160905869 ]
  - # 5
    frequency:    5.0055874814
    eigenvector:
    - # atom 1
      - [  0.06091194121762,  0.00000000000000 ]
      - [ -0.03474202297573, -0.00000281511152 ]
      - [  0.02616991824189, -0.00000281511152 ]
    - # atom 2
      - [ -0.81153200868805,  0.00000000000000 ]
      - [  0.46286923594591,  0.00003750583317 ]
      - [ -0.34866277274214,  0.00003750583317 ]
  - # 6
    frequency:    6.6594901818
    eigenvector:
    - # atom 1
      - [  0.03061259437839,  0.00000000000000 ]
      - [  0.03061259437839, -0.00000000000000 ]
      - [ -0.03061259437839,  0.00000000000000 ]
    - # atom 2
      - [ -0.57653811877339,  0.00000000000000 ]
      - [ -0.57653811877339,  0.00000000000000 ]
      - [  0.57653811877339, -0.00000000000000 ]

- q-position: [    0.0000000,    0.0000000,    0.4300000 ]
  distance:    0.0191693
  band:
  - # 1
    frequency:    2.1897387420
    eigenvector:
    - # atom 1
      - [ -0.80339709252743,  0.00000000000000 ]
      - [  0.29165985492917,  0.00005382191579 ]
      - [ -0.51173723759827,  0.00005382191579 ]
    - # atom 2
      - [ -0.07036507174932,  0.00000000000000 ]
      - [  0.02554486045490,  0.00000471396150 ]
      - [ -0.04482021129442,  0.00000471396150 ]
  - # 2
    frequency:    2.1897387420
    eigenvector:
    - # atom 1
      - [ -0.12706175132546,  0.00000000000000 ]
      - [  0.75929308389218, -0.00034030989035 ]
      - [  0.63223133256673, -0.00034030989035 ]
    - # atom 2
      - [ -0.01112863032711,  0.00000000000000 ]
      - [  0.06650224754829, -0.00002980584579 ]
      - [  0.05537361722118, -0.00002980584579 ]
  - # 3
    frequency:    3.9599584132
    eigenvector:
    - # atom 1
      - [ -0.57623798772247,  0.00000000000000 ]
      - [ -0.57623798772246,  0.00000000000000 ]
      - [  0.57623798772246, -0.00000000000000 ]
    - # atom 2
      - [ -0.03582059238619,  0.00000000000000 ]
      - [ -0.03582059238619, -0.00000000000000 ]
      - [  0.03582059238619, -0.00000000000000 ]
  - # 4
    frequency:    4.9975023393
    eigenvector:
    - # atom 1
      - [  0.07123966405903,  0.00000000000000 ]
      - [ -0.03561983202952,  0.00000000000000 ]
      - [  0.03561983202952, -0.00000000000000 ]
    - # atom 2
      - [ -0.81338279852196,  0.00000000000000 ]
      - [  0.40669139926098, -0.00000000000000 ]
      - [ -0.40669139926098,  0.00000000000000 ]
  - # 5
    frequency:    4.9975023393
    eigenvector:
    - # atom 1
      - [  0.00000000000000,  0.00000000000000 ]
      - [  0.06169526394171, -0.00010820626368 ]
      - [  0.06169526394171, -0.00010820626368 ]
    - # atom 2
      - [ -0.00000000000000, -0.00000000000000 ]
      - [ -0.70440908310400,  0.00123545099117 ]
      - [ -0.70440908310400,  0.00123545099117 ]
  - # 6
    frequency:    6.6337469826
    eigenvector:
    - # atom 1
      - [ -0.03582059238619,  0.00000000000000 ]
      - [ -0.03582059238619,  0.00000000000000 ]
      - [  0.03582059238619, -0.00000000000000 ]
    - # atom 2
      - [  0.57623798772246, -0.00000000000000 ]
      - [  0.57623798772246, -0.00000000000000 ]
      - [ -0.57623798772246,  0.00000000000000 ]

- q-position: [    0.0000000,    0.0000000,    0.4200000 ]
  distance:    0.0219078
  band:
  - # 1
    frequency:    2.1746186821
    eigenvector:
    - # atom 1
      - [ -0.23934774492382, -0.00000000000000 ]
      - [ -0.55268941625568,  0.00044402837646 ]
      - [ -0.79203716117951,  0.00044402837646 ]
    - # atom 2
      - [ -0.02396261384046,  0.00000000000000 ]
      - [ -0.05533322680630,  0.00004445448409 ]
      - [ -0.07929584064676,  0.00004445448409 ]
  - # 2
    frequency:    2.1746186821
    eigenvector:
    - # atom 1
      - [ -0.77637842076858,  0.00000000000000 ]
      - [  0.59547039262633, -0.00013688838812 ]
      - [ -0.18090802814225, -0.00013688838812 ]
    - # atom 2
      - [ -0.07772814528445,  0.00000000000000 ]
      - [  0.05961630044384, -0.00001370476076 ]
      - [ -0.01811184484062, -0.00001370476076 ]
  - # 3
    frequency:    3.9326674570
    eigenvector:
    - # atom 1
      - [ -0.57588718288318,  0.00000000000000 ]
      - [ -0.57588718288318,  0.00000000000000 ]
      - [  0.57588718288318,  0.00000000000000 ]
    - # atom 2
      - [ -0.04107658608268,  0.00000000000000 ]
      - [ -0.04107658608268, -0.00000000000000 ]
      - [  0.04107658608268, -0.00000000000000 ]
  - # 4
    frequency:    4.9882588419
    eigenvector:
    - # atom 1
      - [  0.08133800729935,  0.00000000000000 ]
      - [ -0.04066900364967,  0.00000000000000 ]
      - [  0.04066900364967,  0.00000000000000 ]
    - # atom 2
      - [ -0.81243510216831,  0.00000000000000 ]
      - [  0.40621755108416, -0.00000000000000 ]
      - [ -0.40621755108416,  0.00000000000000 ]
  - # 5
    frequency:    4.9882588419
    eigenvector:
    - # atom 1
      - [  0.00000000000000,  0.00000000000000 ]
      - [  0.07044069168637, -0.00011192996297 ]
      - [  0.07044069168637, -0.00011192996297 ]
    - # atom 2
      - [ -0.00000000000000, -0.00000000000000 ]
      - [ -0.70358854915647,  0.00111799924689 ]
      - [ -0.70358854915647,  0.00111799924689 ]
  - # 6
    frequency:    6.6042223329
    eigenvector:
    - # atom 1
      - [ -0.04107658608268,  0.00000000000000 ]
      - [ -0.04107658608268,  0.00000000000000 ]
      - [  0.04107658608268,  0.00000000000000 ]
    - # atom 2
      - [  0.57588718288318, -0.00000000000000 ]
      - [  0.57588718288318, -0.00000000000000 ]
      - [ -0.57588718288318,  0.00000000000000 ]

- q-position: [    0.0000000,    0.0000000,    0.4100000 ]
  distance:    0.0246463
  band:
  - # 1
    frequency:    2.1574952078
    eigenvector:
    - # atom 1
      - [ -0.09992191382824,  0.00000000000000 ]
      - [ -0.64735158131476,  0.00106250780397 ]
      - [ -0.74727349514299,  0.00106250780397 ]
    - # atom 2
      - [ -0.01125647791669,  0.00000000000000 ]
      - [ -0.07292593286323,  0.00011969442111 ]
      - [ -0.08418241077992,  0.00011969442111 ]
  - # 2
    frequency:    2.1574952078
    eigenvector:
    - # atom 1
      - [  0.80518809801937,  0.00000000000000 ]
      - [ -0.48912886432507,  0.00013185467283 ]
      - [  0.31605923369430,  0.00013185467283 ]
    - # atom 2
      - [  0.09070664979172,  0.00000000000000 ]
      - [ -0.05510170941236,  0.00001485379089 ]
      - [  0.03560494037936,  0.00001485379089 ]
  - # 3
    frequency:    3.9017832561
    eigenvector:
    - # atom 1
      - [  0.57548379856712,  0.00000000000000 ]
      - [  0.57548379856712, -0.00000000000000 ]
      - [ -0.57548379856712, -0.00000000000000 ]
    - # atom 2
      - [  0.04638675371365,  0.00000000000000 ]
      - [  0.04638675371365,  0.00000000000000 ]
      - [ -0.04638675371365,  0.00000000000000 ]
  - # 4
    frequency:    4.9778931114
    eigenvector:
    - # atom 1
      - [ -0.09140243219699,  0.00000000000000 ]
      - [  0.04570121609850, -0.00000000000000 ]
      - [ -0.04570121609850, -0.00000000000000 ]
    - # atom 2
      - [  0.81136444465797,  0.00000000000000 ]
      - [ -0.40568222232899,  0.00000000000000 ]
      - [  0.40568222232899,  0.00000000000000 ]
  - # 5
    frequency:    4.9778931114
    eigenvector:
    - # atom 1
      - [  0.00000000000000,  0.00000000000000 ]
      - [  0.07915626595100,  0.00029836108755 ]
      - [  0.07915626595100,  0.00029836108755 ]
    - # atom 2
      - [  0.00000000000000, -0.00000000000000 ]
      - [ -0.70265722936251, -0.00264850258678 ]
      - [ -0.70265722936251, -0.00264850258678 ]
  - # 6
    frequency:    6.5709935709
    eigenvector:
    - # atom 1
      - [  0.04638675371365,  0.00000000000000 ]
      - [  0.04638675371365, -0.00000000000000 ]
      - [ -0.04638675371365, -0.00000000000000 ]
    - # atom 2
      - [ -0.57548379856712, -0.00000000000000 ]
      - [ -0.57548379856712, -0.00000000000000 ]
      - [  0.57548379856712,  0.00000000000000 ]

- q-position: [    0.0000000,    0.0000000,    0.4000000 ]
  distance:    0.0273847
  band:
  - # 1
    frequency:    2.1383734006
    eigenvector:
    - # atom 1
      - [  0.12706666404427,  0.00000000000000 ]
      - [  0.62941234614790, -0.00110569053858 ]
      - [  0.75647901019217, -0.00110569053858 ]
    - # atom 2
      - [  0.01590775078895, -0.00000000000000 ]
      - [  0.07879749438074, -0.00013842379250 ]
      - [  0.09470524516969, -0.00013842379250 ]
  - # 2
    frequency:    2.1383734006
    eigenvector:
    - # atom 1
      - [  0.80014576625854,  0.00000000000000 ]
      - [ -0.51011570207797,  0.00017558851665 ]
      - [  0.29003006418057,  0.00017558851665 ]
    - # atom 2
      - [  0.10017198090632, -0.00000000000000 ]
      - [ -0.06386248921557,  0.00002198230657 ]
      - [  0.03630949169075,  0.00002198230657 ]
  - # 3
    frequency:    3.8673223324
    eigenvector:
    - # atom 1
      - [ -0.57502569577361,  0.00000000000000 ]
      - [ -0.57502569577361,  0.00000000000000 ]
      - [  0.57502569577361, -0.00000000000000 ]
    - # atom 2
      - [ -0.05175695637695,  0.00000000000000 ]
      - [ -0.05175695637695, -0.00000000000000 ]
      - [  0.05175695637695, -0.00000000000000 ]
  - # 4
    frequency:    4.9664457302
    eigenvector:
    - # atom 1
      - [  0.10142722659060,  0.00000000000000 ]
      - [ -0.05071361329530,  0.00000000000000 ]
      - [  0.05071361329530, -0.00000000000000 ]
    - # atom 2
      - [ -0.81017231770334,  0.00000000000000 ]
      - [  0.40508615885167, -0.00000000000000 ]
      - [ -0.40508615885167,  0.00000000000000 ]
  - # 5
    frequency:    4.9664457302
    eigenvector:
    - # atom 1
      - [  0.00000000000000,  0.00000000000000 ]
      - [  0.08783847191586, -0.00012071404762 ]
      - [  0.08783847191586, -0.00012071404762 ]
    - # atom 2
      - [ -0.00000000000000, -0.00000000000000 ]
      - [ -0.70162914601662,  0.00096423004975 ]
      - [ -0.70162914601662,  0.00096423004975 ]
  - # 6
    frequency:    6.5341487388
    eigenvector:
    - # atom 1
      - [ -0.05175695637695,  0.00000000000000 ]
      - [ -0.05175695637695,  0.00000000000000 ]
      - [  0.05175695637695, -0.00000000000000 ]
    - # atom 2
      - [  0.57502569577361, -0.00000000000000 ]
      - [  0.57502569577361, -0.00000000000000 ]
      - [ -0.57502569577361,  0.00000000000000 ]

- q-position: [    0.0000000,    0.0000000,    0.3900000 ]
  distance:    0.0301232
  band:
  - # 1
    frequency:    2.1172591569
    eigenvector:
    - # atom 1
      - [ -0.75322272207557, -0.00000000000000 ]
      - [  0.12130157861721,  0.00024209147044 ]
      - [ -0.63192114345836,  0.00024209147044 ]
    - # atom 2
      - [ -0.10374307251463,  0.00000000000000 ]
      - [  0.01670714132461,  0.00003334380687 ]
      - [ -0.08703593119002,  0.00003334380687 ]
  - # 2
    frequency:    2.1172591569
    eigenvector:
    - # atom 1
      - [ -0.29480647574959,  0.00000000000000 ]
      - [  0.79971295664329, -0.00061853728245 ]
      - [  0.50490648089370, -0.00061853728245 ]
    - # atom 2
      - [ -0.04060436401493, -0.00000000000000 ]
      - [  0.11014627788089, -0.00008519254168 ]
      - [  0.06954191386596, -0.00008519254168 ]
  - # 3
    frequency:    3.8293028425
    eigenvector:
    - # atom 1
      - [ -0.57451051499567,  0.00000000000000 ]
      - [ -0.57451051499567,  0.00000000000000 ]
      - [  0.57451051499566,  0.00000000000000 ]
    - # atom 2
      - [ -0.05719266992150, -0.00000000000000 ]
      - [ -0.05719266992150, -0.00000000000000 ]
      - [  0.05719266992150, -0.00000000000000 ]
  - # 4
    frequency:    4.9539616039
    eigenvector:
    - # atom 1
      - [ -0.08610064703749,  0.00000000000000 ]
      - [  0.10427541984893, -0.00003343693640 ]
      - [  0.01817477281145, -0.00003343693640 ]
    - # atom 2
      - [  0.62513054763146, -0.00000000000000 ]
      - [ -0.75708781011000,  0.00024276763396 ]
      - [ -0.13195726247854,  0.00024276763396 ]
  - # 5
    frequency:    4.9539616039
    eigenvector:
    - # atom 1
      - [ -0.07069666223776,  0.00000000000000 ]
      - [ -0.03921700537796,  0.00004072245801 ]
      - [ -0.10991366761572,  0.00004072245801 ]
    - # atom 2
      - [  0.51329048852752,  0.00000000000000 ]
      - [  0.28473360993112, -0.00029566389278 ]
      - [  0.79802409845865, -0.00029566389278 ]
  - # 6
    frequency:    6.4937867185
    eigenvector:
    - # atom 1
      - [ -0.05719266992150,  0.00000000000000 ]
      - [ -0.05719266992150,  0.00000000000000 ]
      - [  0.05719266992150,  0.00000000000000 ]
    - # atom 2
      - [  0.57451051499566, -0.00000000000000 ]
      - [  0.57451051499566, -0.00000000000000 ]
      - [ -0.57451051499566,  0.00000000000000 ]

- q-position: [    0.0000000,    0.0000000,    0.3800000 ]
  distance:    0.0328617
  band:
  - # 1
    frequency:    2.0941592652
    eigenvector:
    - # atom 1
      - [  0.08030196202004, -0.00000000000000 ]
      - [  0.65563220270639, -0.00287343363450 ]
      - [  0.73593416472643, -0.00287343363450 ]
    - # atom 2
      - [  0.01206696846591, -0.00000000000000 ]
      - [  0.09852179095347, -0.00043179060865 ]
      - [  0.11058875941937, -0.00043179060865 ]
  - # 2
    frequency:    2.0941592652
    eigenvector:
    - # atom 1
      - [ -0.80342806802135,  0.00000000000000 ]
      - [  0.47125698006505, -0.00028719728345 ]
      - [ -0.33217108795630, -0.00028719728345 ]
    - # atom 2