   2   16
1 1
     4.330518970362049     0.000000000000000    -0.000000000000000
     0.000000000000000     4.330518970362049    -0.000000000000000
    -0.000000000000000    -0.000000000000001     4.330518970362049
1 2
     0.088166846449111     0.000000000000000     0.000000000000000
     0.000000000000000    -0.460826870381876    -1.066046319036968
    -0.000000000000000    -1.066046319036968    -0.460826870381876
1 3
    -0.460826870381876     0.000000000000000    -1.066046319036968
     0.000000000000000     0.088166846449111     0.000000000000000
    -1.066046319036968    -0.000000000000000    -0.460826870381876
1 4
    -0.460826870381876     1.066046319036968    -0.000000000000000
     1.066046319036967    -0.460826870381876     0.000000000000000
    -0.000000000000000    -0.000000000000000     0.088166846449111
1 5
    -0.460826870381876    -1.066046319036968     0.000000000000000
    -1.066046319036968    -0.460826870381876    -0.000000000000000
     0.000000000000000     0.000000000000000     0.088166846449111
1 6
    -0.460826870381876    -0.000000000000000     1.066046319036968
     0.000000000000000     0.088166846449111    -0.000000000000000
     1.066046319036968     0.000000000000000    -0.460826870381876
1 7
     0.088166846449111    -0.000000000000000     0.000000000000000
    -0.000000000000000    -0.460826870381876     1.066046319036967
     0.000000000000000     1.066046319036968    -0.460826870381876
1 8
    -0.618922546981684    -0.000000000000000    -0.000000000000000
    -0.000000000000000    -0.618922546981684     0.000000000000000
     0.000000000000000     0.000000000000000    -0.618922546981684
1 9
     0.072965440118426     0.000000000000000    -0.000000000000000
    -0.000000000000000     0.072965440118426    -0.000000000000000
    -0.000000000000000    -0.000000000000000     0.072965440118426
1 10
    -0.799399468424660    -0.000000000000000    -0.000000000000000
    -0.000000000000000    -0.147938639231353    -0.000000000000000
     0.000000000000000     0.000000000000000    -0.147938639231353
1 11
    -0.147938639231353    -0.000000000000000     0.000000000000000
    -0.000000000000000    -0.799399468424659     0.000000000000000
     0.000000000000000     0.000000000000000    -0.147938639231353
1 12
    -0.147938639231353    -0.000000000000000     0.000000000000000
     0.000000000000000    -0.147938639231353     0.000000000000000
     0.000000000000000     0.000000000000000    -0.799399468424660
1 13
    -0.147938639231353    -0.000000000000000     0.000000000000000
     0.000000000000000    -0.147938639231353     0.000000000000000
     0.000000000000000     0.000000000000000    -0.799399468424660
1 14
    -0.147938639231353    -0.000000000000000     0.000000000000000
    -0.000000000000000    -0.799399468424659     0.000000000000000
     0.000000000000000     0.000000000000000    -0.147938639231353
1 15
    -0.799399468424659    -0.000000000000000    -0.000000000000000
     0.000000000000000    -0.147938639231353    -0.000000000000000
     0.000000000000000     0.000000000000000    -0.147938639231353
1 16
     0.072965440118426     0.000000000000000    -0.000000000000000
     0.000000000000000     0.072965440118426    -0.000000000000000
    -0.000000000000000    -0.000000000000000     0.072965440118426
9 1
     0.074198224222882     0.000000000000000    -0.000000000000000
     0.000000000000000     0.074198224222882    -0.000000000000000
    -0.000000000000000     0.000000000000000     0.074198224222882
9 2
    -0.790560463954201    -0.000000000000000    -0.000000000000000
     0.000000000000000    -0.152152002162197     0.000000000000000
     0.000000000000000     0.000000000000000    -0.152152002162197
9 3
    -0.152152002162197    -0.000000000000000    -0.000000000000000
    -0.000000000000000    -0.790560463954200     0.000000000000000
     0.000000000000000    -0.000000000000000    -0.152152002162197
9 4
    -0.152152002162197    -0.000000000000000     0.000000000000000
    -0.000000000000000    -0.152152002162197     0.000000000000000
     0.000000000000000     0.000000000000000    -0.790560463954200
9 5
    -0.152152002162197    -0.000000000000000     0.000000000000000
    -0.000000000000000    -0.152152002162197     0.000000000000000
     0.000000000000000     0.000000000000000    -0.790560463954200
9 6
    -0.152152002162197    -0.000000000000000    -0.000000000000000
    -0.000000000000000    -0.790560463954200     0.000000000000000
     0.000000000000000    -0.000000000000000    -0.152152002162197
9 7
    -0.790560463954201    -0.000000000000000    -0.000000000000000
     0.000000000000000    -0.152152002162197     0.000000000000000
     0.000000000000000     0.000000000000000    -0.152152002162197
9 8
     0.074198224222882     0.000000000000000    -0.000000000000000
     0.000000000000000     0.074198224222882    -0.000000000000000
    -0.000000000000000     0.000000000000000     0.074198224222882
9 9
     3.407984620026210     0.000000000000000    -0.000000000000000
     0.000000000000000     3.407984620026209    -0.000000000000000
    -0.000000000000000     0.000000000000000     3.407984620026210
9 10
     0.076896564913093     0.000000000000000    -0.000000000000000
     0.000000000000000    -0.183808992443689    -0.437969553523906
    -0.000000000000000    -0.437969553523906    -0.183808992443689
9 11
    -0.183808992443689     0.000000000000000    -0.437969553523907
     0.000000000000000     0.076896564913093     0.000000000000000
    -0.437969553523906    -0.000000000000000    -0.183808992443689
9 12
    -0.183808992443689     0.437969553523907    -0.000000000000000
     0.437969553523906    -0.183808992443689    -0.000000000000000
     0.000000000000000    -0.000000000000000     0.076896564913093
9 13
    -0.183808992443689    -0.437969553523907     0.000000000000000
    -0.437969553523906    -0.183808992443689    -0.000000000000000
    -0.000000000000000     0.000000000000000     0.076896564913093
9 14
    -0.183808992443689    -0.000000000000000     0.437969553523907
    -0.000000000000000     0.076896564913093     0.000000000000000
     0.437969553523906     0.000000000000000    -0.183808992443689
9 15
     0.076896564913093    -0.000000000000000     0.000000000000000
    -0.000000000000000    -0.183808992443689     0.437969553523906
     0.000000000000000     0.437969553523906    -0.183808992443689
9 16
    -0.785209299037282    -0.000000000000000     0.000000000000000
    -0.000000000000000    -0.785209299037282     0.000000000000000
     0.000000000000000     0.000000000000000    -0.785209299037282