mesh: [    13,    13,    13 ]
nqpoint: 84     
reciprocal_lattice:
- [  -0.15810583,   0.15810583,   0.15810583 ] # a*
- [   0.15810583,  -0.15810583,   0.15810583 ] # b*
- [   0.15810583,   0.15810583,  -0.15810583 ] # c*
natom:   2      
lattice:
- [     0.000000000000000,     3.162438790000000,     3.162438790000000 ] # a
- [     3.162438790000000,     0.000000000000000,     3.162438790000000 ] # b
- [     3.162438790000000,     3.162438790000000,     0.000000000000000 ] # c
points:
- symbol: Ba # 1
  coordinates: [  0.000000000000000,  0.000000000000000,  0.000000000000000 ]
  mass: 137.327000
- symbol: S  # 2
  coordinates: [  0.500000000000000,  0.500000000000000,  0.500000000000000 ]
  mass: 32.065000

phonon:
- q-position: [    0.0000000,    0.0000000,    0.0000000 ]
  distance_from_gamma:  0.000000000
  weight: 1    
  band:
  - # 1
    frequency:    -0.0013754241
    eigenvector:
    - # atom 1
      - [ -0.90025441684059,  0.00000000000000 ]
      - [  0.00000000000000,  0.00000000000000 ]
      - [  0.00000000000000,  0.00000000000000 ]
    - # atom 2
      - [ -0.43536419806756,  0.00000000000000 ]
      - [ -0.00000000000000,  0.00000000000000 ]
      - [  0.00000000000000,  0.00000000000000 ]
  - # 2
    frequency:    -0.0013754241
    eigenvector:
    - # atom 1
      - [ -0.00000000000000,  0.00000000000000 ]
      - [  0.70360621396488,  0.00000000000000 ]
      - [  0.56160155867928,  0.00000000000000 ]
    - # atom 2
      - [  0.00000000000000,  0.00000000000000 ]
      - [  0.34026487331571,  0.00000000000000 ]
      - [  0.27159123871446,  0.00000000000000 ]
  - # 3
    frequency:    -0.0013754241
    eigenvector:
    - # atom 1
      - [  0.00000000000000, -0.00000000000000 ]
      - [ -0.56160155867928,  0.00000000000000 ]
      - [  0.70360621396488,  0.00000000000000 ]
    - # atom 2
      - [  0.00000000000000,  0.00000000000000 ]
      - [ -0.27159123871446,  0.00000000000000 ]
      - [  0.34026487331571,  0.00000000000000 ]
  - # 4
    frequency:     4.3815393963
    eigenvector:
    - # atom 1
      - [  0.00000000000000,  0.00000000000000 ]
      - [  0.11983882190118,  0.00000000000000 ]
      - [ -0.41854586573558,  0.00000000000000 ]
    - # atom 2
      - [  0.00000000000000,  0.00000000000000 ]
      - [ -0.24780500832263,  0.00000000000000 ]
      - [  0.86547714752685,  0.00000000000000 ]
  - # 5
    frequency:     4.3815393963
    eigenvector:
    - # atom 1
      - [  0.43536419806756,  0.00000000000000 ]
      - [  0.00000000000000,  0.00000000000000 ]
      - [  0.00000000000000,  0.00000000000000 ]
    - # atom 2
      - [ -0.90025441684059,  0.00000000000000 ]
      - [ -0.00000000000000,  0.00000000000000 ]
      - [  0.00000000000000,  0.00000000000000 ]
  - # 6
    frequency:     4.3815393963
    eigenvector:
    - # atom 1
      - [  0.00000000000000,  0.00000000000000 ]
      - [ -0.41854586573558,  0.00000000000000 ]
      - [ -0.11983882190118,  0.00000000000000 ]
    - # atom 2
      - [  0.00000000000000,  0.00000000000000 ]
      - [  0.86547714752685,  0.00000000000000 ]
      - [  0.24780500832263,  0.00000000000000 ]

- q-position: [    0.0769231,    0.0000000,    0.0000000 ]
  distance_from_gamma:  0.021065179
  weight: 8    
  band:
  - # 1
    frequency:     0.5588727538
    eigenvector:
    - # atom 1
      - [  0.00000000000000,  0.00000000000000 ]
      - [  0.64121810905641, -0.01424264607996 ]
      - [ -0.64121810905641,  0.01424264607996 ]
    - # atom 2
      - [  0.00000000000000,  0.00000000000000 ]
      - [  0.29764538452395, -0.00661125724497 ]
      - [ -0.29764538452395,  0.00661125724497 ]
  - # 2
    frequency:     0.5588727538
    eigenvector:
    - # atom 1
      - [ -0.74059752123920,  0.00000000000000 ]
      - [ -0.37029876061960,  0.00000000000000 ]
      - [ -0.37029876061960, -0.00000000000000 ]
    - # atom 2
      - [ -0.34377605821381, -0.00000000000000 ]
      - [ -0.17188802910690,  0.00000000000000 ]
      - [ -0.17188802910690, -0.00000000000000 ]
  - # 3
    frequency:     1.0248114142
    eigenvector:
    - # atom 1
      - [ -0.52601056381150,  0.00000000000000 ]
      - [  0.52601056381150, -0.00000000000000 ]
      - [  0.52601056381150,  0.00000000000000 ]
    - # atom 2
      - [ -0.23800466401322, -0.00000000000000 ]
      - [  0.23800466401322, -0.00000000000000 ]
      - [  0.23800466401322,  0.00000000000000 ]
  - # 4
    frequency:     4.4182897724
    eigenvector:
    - # atom 1
      - [  0.34377605821381,  0.00000000000000 ]
      - [  0.17188802910690,  0.00000000000000 ]
      - [  0.17188802910690,  0.00000000000000 ]
    - # atom 2
      - [ -0.74059752123920, -0.00000000000000 ]
      - [ -0.37029876061960, -0.00000000000000 ]
      - [ -0.37029876061960, -0.00000000000000 ]
  - # 5
    frequency:     4.4182897724
    eigenvector:
    - # atom 1
      - [  0.00000000000000,  0.00000000000000 ]
      - [ -0.29759275779483, -0.00866222597475 ]
      - [  0.29759275779483,  0.00866222597475 ]
    - # atom 2
      - [  0.00000000000000,  0.00000000000000 ]
      - [  0.64110473517767,  0.01866105254289 ]
      - [ -0.64110473517766, -0.01866105254289 ]
  - # 6
    frequency:     4.5367888224
    eigenvector:
    - # atom 1
      - [ -0.23800466401322,  0.00000000000000 ]
      - [  0.23800466401322,  0.00000000000000 ]
      - [  0.23800466401322,  0.00000000000000 ]
    - # atom 2
      - [  0.52601056381150,  0.00000000000000 ]
      - [ -0.52601056381149, -0.00000000000000 ]
      - [ -0.52601056381150, -0.00000000000000 ]

- q-position: [    0.1538462,    0.0000000,    0.0000000 ]
  distance_from_gamma:  0.042130358
  weight: 8    
  band:
  - # 1
    frequency:     1.0774685537
    eigenvector:
    - # atom 1
      - [  0.74908714941287,  0.00000000000000 ]
      - [  0.28990483593621, -0.00057262873336 ]
      - [  0.45918231347666,  0.00057262873336 ]
    - # atom 2
      - [  0.30720757416938, -0.00000000000000 ]
      - [  0.11889265682603, -0.00023484034430 ]
      - [  0.18831491734335,  0.00023484034430 ]
  - # 2
    frequency:     1.0774685537
    eigenvector:
    - # atom 1
      - [  0.09773463394505,  0.00000000000000 ]
      - [  0.69758097144767,  0.00438891320539 ]
      - [ -0.59984633750262, -0.00438891320539 ]
    - # atom 2
      - [  0.04008187809673,  0.00000000000000 ]
      - [  0.28608441380035,  0.00179993393309 ]
      - [ -0.24600253570363, -0.00179993393309 ]
  - # 3
    frequency:     1.9665672958
    eigenvector:
    - # atom 1
      - [ -0.54086384528232,  0.00000000000000 ]
      - [  0.54086384528232, -0.00000000000000 ]
      - [  0.54086384528232, -0.00000000000000 ]
    - # atom 2
      - [ -0.20198919327469,  0.00000000000000 ]
      - [  0.20198919327469,  0.00000000000000 ]
      - [  0.20198919327469,  0.00000000000000 ]
  - # 4
    frequency:     4.5204267474
    eigenvector:
    - # atom 1
      - [ -0.30906069742778,  0.00000000000000 ]
      - [ -0.17319581523408, -0.00004767359569 ]
      - [ -0.13586488219370,  0.00004767359569 ]
    - # atom 2
      - [  0.75360575811872, -0.00000000000000 ]
      - [  0.42231627873993,  0.00011624608538 ]
      - [  0.33128947937879, -0.00011624608538 ]
  - # 5
    frequency:     4.5204267474
    eigenvector:
    - # atom 1
      - [ -0.02155309454001,  0.00000000000000 ]
      - [  0.25687699500139,  0.00068361574271 ]
      - [ -0.27843008954140, -0.00068361574271 ]
    - # atom 2
      - [  0.05255451853248, -0.00000000000000 ]
      - [ -0.62636234297153, -0.00166691127127 ]
      - [  0.67891686150402,  0.00166691127127 ]
  - # 6
    frequency:     4.9509531085
    eigenvector:
    - # atom 1
      - [  0.20198919327469, -0.00000000000000 ]
      - [ -0.20198919327469,  0.00000000000000 ]
      - [ -0.20198919327469,  0.00000000000000 ]
    - # atom 2
      - [ -0.54086384528232,  0.00000000000000 ]
      - [  0.54086384528232, -0.00000000000000 ]
      - [  0.54086384528232, -0.00000000000000 ]

- q-position: [    0.2307692,    0.0000000,    0.0000000 ]
  distance_from_gamma:  0.063195537
  weight: 8    
  band:
  - # 1
    frequency:     1.5219699105
    eigenvector:
    - # atom 1
      - [ -0.03719888305574,  0.00000000000000 ]
      - [  0.65177679918802,  0.00274538930490 ]
      - [ -0.68897568224376, -0.00274538930490 ]
    - # atom 2
      - [ -0.01233758314892, -0.00000000000000 ]
      - [  0.21617182544076,  0.00091055069515 ]
      - [ -0.22850940858968, -0.00091055069515 ]
  - # 2
    frequency:     1.5219699105
    eigenvector:
    - # atom 1
      - [  0.77409029729854,  0.00000000000000 ]
      - [  0.41926005622370,  0.00013192959019 ]
      - [  0.35483024107484, -0.00013192959019 ]
    - # atom 2
      - [  0.25673898308665,  0.00000000000000 ]
      - [  0.13905406237409,  0.00004375648286 ]
      - [  0.11768492071257, -0.00004375648286 ]
  - # 3
    frequency:     2.7643422841
    eigenvector:
    - # atom 1
      - [  0.55644585534892,  0.00000000000000 ]
      - [ -0.55644585534892, -0.00000000000000 ]
      - [ -0.55644585534892, -0.00000000000000 ]
    - # atom 2
      - [  0.15395240627657,  0.00000000000000 ]
      - [ -0.15395240627657,  0.00000000000000 ]
      - [ -0.15395240627657, -0.00000000000000 ]
  - # 4
    frequency:     4.6650463637
    eigenvector:
    - # atom 1
      - [  0.00000000000000,  0.00000000000000 ]
      - [ -0.22259719764682,  0.00091029969056 ]
      - [  0.22259719764682, -0.00091029969056 ]
    - # atom 2
      - [ -0.00000000000000,  0.00000000000000 ]
      - [  0.67114985356973, -0.00274463250428 ]
      - [ -0.67114985356973,  0.00274463250428 ]
  - # 5
    frequency:     4.6650463637
    eigenvector:
    - # atom 1
      - [ -0.25703525321311,  0.00000000000000 ]
      - [ -0.12851762660655, -0.00000000000000 ]
      - [ -0.12851762660655, -0.00000000000000 ]
    - # atom 2
      - [  0.77498357742106,  0.00000000000000 ]
      - [  0.38749178871053,  0.00000000000000 ]
      - [  0.38749178871053,  0.00000000000000 ]
  - # 6
    frequency:     5.5000565663
    eigenvector:
    - # atom 1
      - [  0.15395240627657,  0.00000000000000 ]
      - [ -0.15395240627657, -0.00000000000000 ]
      - [ -0.15395240627657,  0.00000000000000 ]
    - # atom 2
      - [ -0.55644585534892, -0.00000000000000 ]
      - [  0.55644585534892,  0.00000000000000 ]
      - [  0.55644585534892,  0.00000000000000 ]

- q-position: [    0.3076923,    0.0000000,    0.0000000 ]
  distance_from_gamma:  0.084260715
  weight: 8    
  band:
  - # 1
    frequency:     1.8689227087
    eigenvector:
    - # atom 1
      - [  0.79084438793817, -0.00000000000000 ]
      - [  0.33524251999935, -0.00013618855657 ]
      - [  0.45560186793881,  0.00013618855657 ]
    - # atom 2
      - [  0.19006341199834,  0.00000000000000 ]
      - [  0.08056874167637, -0.00003273015796 ]
      - [  0.10949467032197,  0.00003273015796 ]
  - # 2
    frequency:     1.8689227087
    eigenvector:
    - # atom 1
      - [ -0.06948967987096,  0.00000000000000 ]
      - [ -0.71963441656456, -0.00154992735420 ]
      - [  0.65014473669361,  0.00154992735420 ]
    - # atom 2
      - [ -0.01670043545403,  0.00000000000000 ]
      - [ -0.17294953936550, -0.00037249361035 ]
      - [  0.15624910391146,  0.00037249361035 ]
  - # 3
    frequency:     3.3840640681
    eigenvector:
    - # atom 1
      - [  0.56773870817394,  0.00000000000000 ]
      - [ -0.56773870817394, -0.00000000000000 ]
      - [ -0.56773870817394,  0.00000000000000 ]
    - # atom 2
      - [  0.10490992600473,  0.00000000000000 ]
      - [ -0.10490992600473,  0.00000000000000 ]
      - [ -0.10490992600473, -0.00000000000000 ]
  - # 4
    frequency:     4.8190549730
    eigenvector:
    - # atom 1
      - [  0.00000000000000,  0.00000000000000 ]
      - [ -0.16523237779873,  0.00071775384396 ]
      - [  0.16523237779873, -0.00071775384396 ]
    - # atom 2
      - [  0.00000000000000,  0.00000000000000 ]
      - [  0.68752369177161, -0.00298653798461 ]
      - [ -0.68752369177161,  0.00298653798461 ]
  - # 5
    frequency:     4.8190549730
    eigenvector:
    - # atom 1
      - [ -0.19079571568776,  0.00000000000000 ]
      - [ -0.09539785784388, -0.00000000000000 ]
      - [ -0.09539785784388,  0.00000000000000 ]
    - # atom 2
      - [  0.79389146710483,  0.00000000000000 ]
      - [  0.39694573355242,  0.00000000000000 ]
      - [  0.39694573355242, -0.00000000000000 ]
  - # 6
    frequency:     6.0448469415
    eigenvector:
    - # atom 1
      - [  0.10490992600473,  0.00000000000000 ]
      - [ -0.10490992600473, -0.00000000000000 ]
      - [ -0.10490992600473,  0.00000000000000 ]
    - # atom 2
      - [ -0.56773870817394, -0.00000000000000 ]
      - [  0.56773870817394,  0.00000000000000 ]
      - [  0.56773870817394,  0.00000000000000 ]

- q-position: [    0.3846154,    0.0000000,    0.0000000 ]
  distance_from_gamma:  0.105325894
  weight: 8    
  band:
  - # 1
    frequency:     2.1050670200
    eigenvector:
    - # atom 1
      - [ -0.40818477437451,  0.00000000000000 ]
      - [ -0.80809092038044,  0.00055927064808 ]
      - [  0.39990614600593, -0.00055927064808 ]
    - # atom 2
      - [ -0.05897610609052, -0.00000000000000 ]
      - [ -0.11675608411454,  0.00008080557420 ]
      - [  0.05777997802402, -0.00008080557420 ]
  - # 2
    frequency:     2.1050670200
    eigenvector:
    - # atom 1
      - [  0.69743773044210,  0.00000000000000 ]
      - [ -0.00477936728454,  0.00032732063858 ]
      - [  0.70221709772664, -0.00032732063858 ]
    - # atom 2
      - [  0.10076848565730,  0.00000000000000 ]
      - [ -0.00069054136684,  0.00004729254475 ]
      - [  0.10145902702413, -0.00004729254475 ]
  - # 3
    frequency:     3.8073636932
    eigenvector:
    - # atom 1
      - [ -0.57420857764424,  0.00000000000000 ]
      - [  0.57420857764424,  0.00000000000000 ]
      - [  0.57420857764424,  0.00000000000000 ]
    - # atom 2
      - [ -0.06014850532734, -0.00000000000000 ]
      - [  0.06014850532734, -0.00000000000000 ]
      - [  0.06014850532734,  0.00000000000000 ]
  - # 4
    frequency:     4.9468269962
    eigenvector:
    - # atom 1
      - [  0.11675816370287,  0.00000000000000 ]
      - [  0.05837908185143,  0.00000000000000 ]
      - [  0.05837908185143,  0.00000000000000 ]
    - # atom 2
      - [ -0.80810531360424, -0.00000000000000 ]
      - [ -0.40405265680212, -0.00000000000000 ]
      - [ -0.40405265680212, -0.00000000000000 ]
  - # 5
    frequency:     4.9468269962
    eigenvector:
    - # atom 1
      - [  0.00000000000000,  0.00000000000000 ]
      - [ -0.10111342951075, -0.00065266072674 ]
      - [  0.10111342951075,  0.00065266072674 ]
    - # atom 2
      - [ -0.00000000000000,  0.00000000000000 ]
      - [  0.69982515203240,  0.00451718821649 ]
      - [ -0.69982515203240, -0.00451718821649 ]
  - # 6
    frequency:     6.4706345565
    eigenvector:
    - # atom 1
      - [ -0.06014850532734,  0.00000000000000 ]
      - [  0.06014850532734,  0.00000000000000 ]
      - [  0.06014850532734,  0.00000000000000 ]
    - # atom 2
      - [  0.57420857764424,  0.00000000000000 ]
      - [ -0.57420857764424, -0.00000000000000 ]
      - [ -0.57420857764424, -0.00000000000000 ]

- q-position: [    0.4615385,    0.0000000,    0.0000000 ]
  distance_from_gamma:  0.126391073
  weight: 8    
  band:
  - # 1
    frequency:     2.2242574758
    eigenvector:
    - # atom 1
      - [ -0.80693597086384,  0.00000000000000 ]
      - [ -0.50587284194721,  0.00006111512584 ]
      - [ -0.30106312891663, -0.00006111512584 ]
    - # atom 2
      - [ -0.03881127809454, -0.00000000000000 ]
      - [ -0.02433101541907,  0.00000293946017 ]
      - [ -0.01448026267547, -0.00000293946017 ]
  - # 2
    frequency:     2.2242574758
    eigenvector:
    - # atom 1
      - [  0.11824696400881,  0.00000000000000 ]
      - [ -0.63970344354085,  0.00041705927773 ]
      - [  0.75795040754967, -0.00041705927773 ]
    - # atom 2
      - [  0.00568733576106,  0.00000000000000 ]
      - [ -0.03076787891699,  0.00002005934076 ]
      - [  0.03645521467805, -0.00002005934076 ]
  - # 3
    frequency:     4.0223374881
    eigenvector:
    - # atom 1
      - [ -0.57701992765523,  0.00000000000000 ]
      - [  0.57701992765523,  0.00000000000000 ]
      - [  0.57701992765523,  0.00000000000000 ]
    - # atom 2
      - [ -0.01952783710715, -0.00000000000000 ]
      - [  0.01952783710715, -0.00000000000000 ]
      - [  0.01952783710715, -0.00000000000000 ]
  - # 4
    frequency:     5.0189253595
    eigenvector:
    - # atom 1
      - [ -0.03483584130036,  0.00000000000000 ]
      - [ -0.03303342340025, -0.00000400972093 ]
      - [ -0.00180241790011,  0.00000400972093 ]
    - # atom 2
      - [  0.72428156970482,  0.00000000000000 ]
      - [  0.68680700278677,  0.00008336721204 ]
      - [  0.03747456691805, -0.00008336721204 ]
  - # 5
    frequency:     5.0189253595
    eigenvector:
    - # atom 1
      - [  0.01803123002701,  0.00000000000000 ]
      - [ -0.02115310752022, -0.00000774667073 ]
      - [  0.03918433754724,  0.00000774667073 ]
    - # atom 2
      - [ -0.37489226900163, -0.00000000000000 ]
      - [  0.43980008367768,  0.00016106316451 ]
      - [ -0.81469235267931, -0.00016106316451 ]
  - # 6
    frequency:     6.7017938093
    eigenvector:
    - # atom 1
      - [ -0.01952783710715,  0.00000000000000 ]
      - [  0.01952783710715,  0.00000000000000 ]
      - [  0.01952783710715,  0.00000000000000 ]
    - # atom 2
      - [  0.57701992765523,  0.00000000000000 ]
      - [ -0.57701992765523, -0.00000000000000 ]
      - [ -0.57701992765523, -0.00000000000000 ]

- q-position: [    0.0769231,    0.0769231,    0.0000000 ]
  distance_from_gamma:  0.024323973
  weight: 6    
  band:
  - # 1
    frequency:     0.7038527145
    eigenvector:
    - # atom 1
      - [ -0.90745411344891,  0.00000000000000 ]
      - [  0.00000000000000,  0.00000000000000 ]
      - [ -0.00000000000000,  0.00000000000000 ]
    - # atom 2
      - [ -0.42015120133668, -0.00000000000000 ]
      - [ -0.00000000000000, -0.00000000000000 ]
      - [  0.00000000000000, -0.00000000000000 ]
  - # 2
    frequency:     0.7038527145
    eigenvector:
    - # atom 1
      - [  0.00000000000000,  0.00000000000000 ]
      - [  0.90745409450710,  0.00018541210090 ]
      - [  0.00000000000000,  0.00000000000000 ]
    - # atom 2
      - [  0.00000000000000,  0.00000000000000 ]
      - [  0.42015119256662,  0.00008584579185 ]
      - [  0.00000000000000,  0.00000000000000 ]
  - # 3
    frequency:     1.0792437493
    eigenvector:
    - # atom 1
      - [  0.00000000000000,  0.00000000000000 ]
      - [ -0.00000000000000, -0.00000000000000 ]
      - [  0.91490588139623,  0.06185534528463 ]
    - # atom 2
      - [ -0.00000000000000, -0.00000000000000 ]
      - [ -0.00000000000000, -0.00000000000000 ]
      - [  0.39799136569064,  0.02690756923273 ]
  - # 4
    frequency:     4.4789931142
    eigenvector:
    - # atom 1
      - [  0.00000000000000,  0.00000000000000 ]
      - [  0.42015119784417,  0.00005417345507 ]
      - [  0.00000000000028, -0.00000000000000 ]
    - # atom 2
      - [  0.00000000000000,  0.00000000000000 ]
      - [ -0.90745410590570, -0.00011700531734 ]
      - [ -0.00000000000064,  0.00000000000000 ]
  - # 5
    frequency:     4.4789931142
    eigenvector:
    - # atom 1
      - [  0.42015120133668,  0.00000000000000 ]
      - [  0.00000000000000,  0.00000000000000 ]
      - [ -0.00000000000000,  0.00000000000000 ]
    - # atom 2
      - [ -0.90745411344891, -0.00000000000000 ]
      - [ -0.00000000000000, -0.00000000000000 ]
      - [  0.00000000000000, -0.00000000000000 ]
  - # 6
    frequency:     4.4800748583
    eigenvector:
    - # atom 1
      - [  0.00000000000000,  0.00000000000000 ]
      - [ -0.00000000000029, -0.00000000000000 ]
      - [  0.39889836721540, -0.00111224062381 ]
    - # atom 2
      - [ -0.00000000000000, -0.00000000000000 ]
      - [  0.00000000000064,  0.00000000000000 ]
      - [ -0.91699090409011,  0.00255682805201 ]

- q-position: [    0.1538462,    0.0769231,    0.0000000 ]
  distance_from_gamma:  0.040336747
  weight: 24   
  band:
  - # 1
    frequency:     1.0513836603
    eigenvector:
    - # atom 1
      - [  0.55490639472422,  0.00000000000000 ]
      - [ -0.55490639472422, -0.00000000000000 ]
      - [  0.48384077818007,  0.00000000000000 ]
    - # atom 2
      - [  0.23795282390091,  0.00000000000000 ]
      - [ -0.23795282390091, -0.00000000000000 ]
      - [  0.19186660666620,  0.00000000000000 ]
  - # 2
    frequency:     1.0934764120
    eigenvector:
    - # atom 1
      - [  0.64987180032858,  0.00000000000000 ]
      - [  0.64987180032859,  0.00000000000000 ]
      - [  0.00000000000000, -0.00000000000000 ]
    - # atom 2
      - [  0.27868735733378,  0.00000000000000 ]
      - [  0.27868735733378,  0.00000000000000 ]
      - [ -0.00000000000000, -0.00000000000000 ]
  - # 3
    frequency:     1.7934831315
    eigenvector:
    - # atom 1
      - [ -0.34099580761210,  0.00000000000000 ]
      - [  0.34099580761210,  0.00000000000000 ]
      - [  0.80320267822054, -0.00000000000000 ]
    - # atom 2
      - [ -0.13828407766627, -0.00000000000000 ]
      - [  0.13828407766627, -0.00000000000000 ]
      - [  0.28993827586106,  0.00000000000000 ]
  - # 4
    frequency:     4.4990049514
    eigenvector:
    - # atom 1
      - [  0.19129616884886,  0.00000000000000 ]
      - [ -0.19129616884886, -0.00000000000000 ]
      - [  0.26316054406096, -0.00000000000000 ]
    - # atom 2
      - [ -0.43417610183006, -0.00000000000000 ]
      - [  0.43417610183005,  0.00000000000000 ]
      - [ -0.69321014477311, -0.00000000000000 ]
  - # 5
    frequency:     4.5916463005
    eigenvector:
    - # atom 1
      - [  0.27868735733377, -0.00000000000000 ]
      - [  0.27868735733378,  0.00000000000000 ]
      - [ -0.00000000000000,  0.00000000000000 ]
    - # atom 2
      - [ -0.64987180032858, -0.00000000000000 ]
      - [ -0.64987180032859, -0.00000000000000 ]
      - [  0.00000000000000, -0.00000000000000 ]
  - # 6
    frequency:     4.8035574876
    eigenvector:
    - # atom 1
      - [ -0.19800638390943,  0.00000000000000 ]
      - [  0.19800638390943,  0.00000000000000 ]
      - [  0.22695833784861, -0.00000000000000 ]
    - # atom 2
      - [  0.48553792855063,  0.00000000000000 ]
      - [ -0.48553792855062, -0.00000000000000 ]
      - [ -0.63133406103327, -0.00000000000000 ]

- q-position: [    0.2307692,    0.0769231,    0.0000000 ]
  distance_from_gamma:  0.059581323
  weight: 24   
  band:
  - # 1
    frequency:     1.4432089307
    eigenvector:
    - # atom 1
      - [ -0.50067599504046,  0.00000000000000 ]
      - [  0.50067599504050,  0.00000000000000 ]
      - [ -0.62603187163021, -0.00000000000000 ]
    - # atom 2
      - [ -0.18259747570980, -0.00000000000000 ]
      - [  0.18259747570981,  0.00000000000000 ]
      - [ -0.20011875327526, -0.00000000000000 ]
  - # 2
    frequency:     1.4924772312
    eigenvector:
    - # atom 1
      - [  0.66329111436156,  0.00000000000000 ]
      - [  0.66329111436153,  0.00000000000000 ]
      - [  0.00000000000002, -0.00000000000000 ]
    - # atom 2
      - [  0.24504060400068,  0.00000000000000 ]
      - [  0.24504060400067,  0.00000000000000 ]
      - [  0.00000000000001, -0.00000000000000 ]
  - # 3
    frequency:     2.5493862767
    eigenvector:
    - # atom 1
      - [ -0.44013577188734,  0.00000000000000 ]
      - [  0.44013577188734,  0.00000000000000 ]
      - [  0.73165170589184,  0.00000000000000 ]
    - # atom 2
      - [ -0.14778487571954, -0.00000000000000 ]
      - [  0.14778487571954, -0.00000000000000 ]
      - [  0.18321038969705,  0.00000000000000 ]
  - # 4
    frequency:     4.5853813276
    eigenvector:
    - # atom 1
      - [  0.16780607198789,  0.00000000000000 ]
      - [ -0.16780607198788, -0.00000000000000 ]
      - [  0.21369984603662, -0.00000000000000 ]
    - # atom 2
      - [ -0.42494405699433, -0.00000000000000 ]
      - [  0.42494405699432,  0.00000000000000 ]
      - [ -0.73270711547133, -0.00000000000000 ]
  - # 5
    frequency:     4.7305363071
    eigenvector:
    - # atom 1
      - [  0.24504060400067, -0.00000000000000 ]
      - [  0.24504060400067,  0.00000000000000 ]
      - [ -0.00000000000000,  0.00000000000000 ]
    - # atom 2
      - [ -0.66329111436155, -0.00000000000000 ]
      - [ -0.66329111436155, -0.00000000000000 ]
      - [  0.00000000000000, -0.00000000000000 ]
  - # 6
    frequency:     5.2965243134
    eigenvector:
    - # atom 1
      - [ -0.16566584590482,  0.00000000000000 ]
      - [  0.16566584590481,  0.00000000000000 ]
      - [  0.16462761849900, -0.00000000000000 ]
    - # atom 2
      - [  0.51404313126252,  0.00000000000000 ]
      - [ -0.51404313126251, -0.00000000000000 ]
      - [ -0.62412075805271, -0.00000000000000 ]

- q-position: [    0.3076923,    0.0769231,    0.0000000 ]
  distance_from_gamma:  0.079751480
  weight: 24   
  band:
  - # 1
    frequency:     1.7990583276
    eigenvector:
    - # atom 1
      - [ -0.47096193971040,  0.00000000000000 ]
      - [  0.47096193971027,  0.00000000000000 ]
      - [ -0.70467693767076, -0.00000000000000 ]
    - # atom 2
      - [ -0.13147981842734, -0.00000000000000 ]
      - [  0.13147981842730,  0.00000000000000 ]
      - [ -0.15889062557667, -0.00000000000000 ]
  - # 2
    frequency:     1.8275647620
    eigenvector:
    - # atom 1
      - [  0.67845361386731,  0.00000000000000 ]
      - [  0.67845361386740,  0.00000000000000 ]
      - [ -0.00000000000007, -0.00000000000000 ]
    - # atom 2
      - [  0.19925032956140,  0.00000000000000 ]
      - [  0.19925032956142, -0.00000000000000 ]
      - [ -0.00000000000002,  0.00000000000000 ]
  - # 3
    frequency:     3.1792652596
    eigenvector:
    - # atom 1
      - [ -0.49241299226646,  0.00000000000000 ]
      - [  0.49241299226646,  0.00000000000000 ]
      - [  0.68760245913383,  0.00000000000000 ]
    - # atom 2
      - [ -0.13158751667694, -0.00000000000000 ]
      - [  0.13158751667694, -0.00000000000000 ]
      - [  0.08735673527024,  0.00000000000000 ]
  - # 4
    frequency:     4.7179752343
    eigenvector:
    - # atom 1
      - [  0.14219606804390,  0.00000000000000 ]
      - [ -0.14219606804390, -0.00000000000000 ]
      - [  0.13961025024159,  0.00000000000000 ]
    - # atom 2
      - [ -0.42126142396252, -0.00000000000000 ]
      - [  0.42126142396252,  0.00000000000000 ]
      - [ -0.76494912239660, -0.00000000000000 ]
  - # 5
    frequency:     4.8645118999
    eigenvector:
    - # atom 1
      - [  0.19925032956141, -0.00000000000000 ]
      - [  0.19925032956141,  0.00000000000000 ]
      - [ -0.00000000000000,  0.00000000000000 ]
    - # atom 2
      - [ -0.67845361386735, -0.00000000000000 ]
      - [ -0.67845361386735, -0.00000000000000 ]
      - [  0.00000000000000,  0.00000000000000 ]
  - # 6
    frequency:     5.8278969642
    eigenvector:
    - # atom 1
      - [ -0.12451736675789,  0.00000000000000 ]
      - [  0.12451736675789,  0.00000000000000 ]
      - [  0.10555685546444,  0.00000000000000 ]
    - # atom 2
      - [  0.53659723767662,  0.00000000000000 ]
      - [ -0.53659723767662, -0.00000000000000 ]
      - [ -0.61804159249314, -0.00000000000000 ]

- q-position: [    0.3846154,    0.0769231,    0.0000000 ]
  distance_from_gamma:  0.100290311
  weight: 24   
  band:
  - # 1
    frequency:     2.0702394388
    eigenvector:
    - # atom 1
      - [ -0.69222094552151,  0.00000000000000 ]
      - [ -0.69222094552222,  0.00000000000000 ]
      - [  0.00000000000060, -0.00000000000000 ]
    - # atom 2
      - [ -0.14432658307046, -0.00000000000000 ]
      - [ -0.14432658307059,  0.00000000000000 ]
      - [  0.00000000000007, -0.00000000000000 ]
  - # 2
    frequency:     2.0713991144
    eigenvector:
    - # atom 1
      - [  0.44863751216992,  0.00000000000000 ]
      - [ -0.44863751216883,  0.00000000000000 ]
      - [  0.75833668373614, -0.00000000000000 ]
    - # atom 2
      - [  0.08197906239316,  0.00000000000000 ]
      - [ -0.08197906239293,  0.00000000000000 ]
      - [  0.09451511047097, -0.00000000000000 ]
  - # 3
    frequency:     3.6389255684
    eigenvector:
    - # atom 1
      - [ -0.52789810516284,  0.00000000000000 ]
      - [  0.52789810516284,  0.00000000000000 ]
      - [  0.64744203332643,  0.00000000000000 ]
    - # atom 2
      - [ -0.10826842192359, -0.00000000000000 ]
      - [  0.10826842192359, -0.00000000000000 ]
      - [  0.00467891455821,  0.00000000000000 ]
  - # 4
    frequency:     4.8647710460
    eigenvector:
    - # atom 1
      - [ -0.11470302829236,  0.00000000000000 ]
      - [  0.11470302829236,  0.00000000000000 ]
      - [ -0.05291516959964,  0.00000000000000 ]
    - # atom 2
      - [  0.41808834816191,  0.00000000000000 ]
      - [ -0.41808834816191, -0.00000000000000 ]
      - [  0.78821994499623,  0.00000000000000 ]
  - # 5
    frequency:     4.9636359074
    eigenvector:
    - # atom 1
      - [ -0.14432658307053,  0.00000000000000 ]
      - [ -0.14432658307053, -0.00000000000000 ]
      - [ -0.00000000000000, -0.00000000000000 ]
    - # atom 2
      - [  0.69222094552186,  0.00000000000000 ]
      - [  0.69222094552187,  0.00000000000000 ]
      - [ -0.00000000000000, -0.00000000000000 ]
  - # 6
    frequency:     6.2794661205
    eigenvector:
    - # atom 1
      - [ -0.08301318293211,  0.00000000000000 ]
      - [  0.08301318293211,  0.00000000000000 ]
      - [  0.05426115008405, -0.00000000000000 ]
    - # atom 2
      - [  0.55385875029161,  0.00000000000000 ]
      - [ -0.55385875029161, -0.00000000000000 ]
      - [ -0.60807427174759, -0.00000000000000 ]

- q-position: [    0.4615385,    0.0769231,    0.0000000 ]
  distance_from_gamma:  0.121010240
  weight: 24   
  band:
  - # 1
    frequency:     2.2069011121
    eigenvector:
    - # atom 1
      - [  0.70225866092258,  0.00000000000000 ]
      - [  0.70225866092258,  0.00000000000000 ]
      - [  0.00000000000001, -0.00000000000000 ]
    - # atom 2