40960
Time=1000.00000000 pbc="T T T" Lattice="114.44209714 -0.00193461 0.00135345 0.00058891 112.11478387 0.00013267 -0.00109067 0.00134197 80.29569219" energy=-80500.12960160 virial="2103.59518892 3.72111194 0.30013153 3.72111194 -371.37013301 -3.27636457 0.30013153 -3.27636457 27.42357042" stress="0.00204548 0.00000361 0.00000029 0.00000361 -0.00035684 -0.00000318 0.00000029 -0.00000318 0.00003025" Properties=species:S:1:pos:R:3
Ba 0.36961174 0.13831145 0.00118667
Ba 3.94561332 3.35714649 80.29425556
Ba 11.09457146 3.36434061 80.29295609
Ba 0.37036803 7.15420906 0.00132669
Ba 114.06978119 111.97165672 5.02003637
Ba 3.20914846 3.64903515 5.01520075
Ba 10.35607034 3.64292528 5.02040203
Ba 114.06625075 6.86282308 5.01419917
Zr 114.44188616 3.50111634 2.51490261
Zr 3.57521882 7.00498266 2.50724559
Zr 10.72791263 7.00362703 2.50718363
Zr 0.00584901 10.51138401 2.51032017
Zr 0.00321053 3.50511588 7.53013766
Zr 3.57632463 7.00730909 7.52768498
Zr 10.72832331 7.00730332 7.52371290
Zr 0.00084049 10.50979814 7.52726399
S 114.35301054 3.98218609 0.00352356
S 3.48172695 6.52991457 80.29449059
S 10.64472238 6.52927433 80.29425149
S 114.35295399 10.98612328 0.00239891
S 0.09343364 3.02490964 5.01902631
S 3.66987114 7.48996219 5.01790186
S 10.81539892 7.48341621 5.01667240
S 0.09429453 10.02832638 5.01933315
S 2.07682264 2.03491164 2.16800124
S 5.07659159 4.97361942 2.84829442
S 12.22454577 4.96764992 2.84978627
S 2.08119808 9.04370104 2.16671583
S 2.08070951 2.04093532 7.86868427
S 5.07400045 4.96931681 7.18933887
S 12.22671054 4.97214540 7.18424717
S 2.07874148 9.04282847 7.86934726
S 12.80682707 1.46631758 2.16770001
S 1.49706210 5.54069208 2.85180096
S 8.65225037 5.53705173 2.84706527
S 12.80797579 8.47123961 2.16793515
S 12.80876581 1.46529509 7.86514640
S 1.50101288 5.53960960 7.18353059
S 8.65243556 5.53567728 7.18810320
S 12.80427021 8.47561571 7.86550213
Ba 7.53007808 7.15074612 80.29381606
Ba 11.09952592 10.36761405 0.00253482
Ba 3.94115040 10.37565324 80.28990945
Ba 7.51772732 0.14776952 80.29245912
Ba 6.78185184 6.86265072 5.02424714
Ba 10.35681704 10.65363407 5.01979169
Ba 3.20873715 10.65439100 5.01477662
Ba 6.78459541 111.97181236 5.01894026
Zr 7.14987027 10.50807586 2.50583574
Zr 10.72778147 0.00038285 2.51038618
Zr 3.57568133 112.11416569 2.51104562
Zr 7.15468826 3.50111987 2.50701186
Zr 7.15105173 10.50975702 7.52749327
Zr 10.72952577 112.10860554 7.52768278
Zr 3.57342522 0.00336091 7.52734669
Zr 7.15419300 3.50133987 7.52934844
S 7.06072939 10.99222509 80.29443424
S 10.63594879 111.64023334 80.29565794
S 3.48621725 111.63587281 0.00045348
S 7.05933123 3.98023923 80.29511917
S 7.24080439 10.03234415 5.01874811
S 10.81851391 0.47611303 5.01810826
S 3.66779971 0.48212441 5.01983451
S 7.24209972 3.02564951 5.01913441
S 9.22969643 9.03794693 2.16670157
S 12.22838956 11.97668875 2.85053246
S 5.07313323 11.97728571 2.84913541
S 9.22921667 2.03488888 2.16896005
S 9.23068655 9.04285629 7.86761474
S 12.22959137 11.97906135 7.18664876
S 5.07620882 11.97874073 7.18890356
S 9.23120137 2.03475464 7.86806539
S 5.65463136 8.47387521 2.16435384
S 8.65314074 12.54221410 2.84784571
S 1.49993574 12.54560597 2.85274648
S 5.65129938 1.46947380 2.16951495
S 5.65590541 8.47265901 7.87298487
S 8.65210186 12.54431266 7.19109634
S 1.49931413 12.54445485 7.18635624
S 5.65276199 1.46978072 7.87262182
Ba 0.37670277 0.14474897 10.03447646
Ba 3.95821212 3.35692987 10.03537122
Ba 11.09860490 3.36086699 10.03652832
Ba 0.37025101 7.15505026 10.03147860
Ba 114.07232783 111.97119901 15.05460344
Ba 3.20234827 3.65536909 15.05560397
Ba 10.35645608 3.65171325 15.05997954
Ba 114.06437630 6.85471716 15.05924761
Zr 114.43970293 3.49853735 12.54584952
Zr 3.57776275 7.00507861 12.54391815
Zr 10.73232048 7.00914131 12.54299250
Zr 0.00050068 10.50916931 12.54438369
Zr 114.43866253 3.50032747 17.56705422
Zr 3.57610425 7.00551094 17.56522344
Zr 10.73112280 7.01124759 17.56285295
Zr 114.44142872 10.50708059 17.56454851
S 114.35019666 3.98165924 10.03775226
S 3.48328652 6.52492951 10.03691443
S 10.63866982 6.52794438 10.03607306
S 114.35071718 10.98535932 10.03873617
S 0.09139098 3.02479679 15.05617192
S 3.66605951 7.48612439 15.05633842
S 10.82376849 7.48785198 15.05449841
S 0.08741392 10.02829951 15.05390077
S 2.08121181 2.03984390 12.20395236
S 5.07844980 4.97204866 12.88496506
S 12.22961916 4.97116132 12.88868388
S 2.07738879 9.04145255 12.20530230
S 2.07721484 2.03714072 17.90293030
S 5.07406599 4.97148399 17.22725500
S 12.22849557 4.97167572 17.22240455
S 2.07616644 9.04130307 17.90348466
S 12.80643075 1.46644815 12.20621575
S 1.49692714 5.54000418 12.88860624
S 8.65376471 5.54283913 12.89034276
S 12.81012469 8.47403805 12.20366099
S 12.80415181 1.46835601 17.90775671
S 1.49755787 5.53842259 17.22586668
S 8.65076476 5.54475983 17.22763284
S 12.80645112 8.47643477 17.90289605
Ba 7.53065829 7.15191366 10.04013941
Ba 11.10332294 10.36504468 10.03288137
Ba 3.94879301 10.36570804 10.04221821
Ba 7.52501593 0.14216865 10.03656883
Ba 6.78008407 6.86361199 15.05595230
Ba 10.35407700 10.65575782 15.05760531
Ba 3.19452029 10.65461725 15.05590667
Ba 6.78545477 111.97577669 15.05126394
Zr 7.15373704 10.50967279 12.54634506
Zr 10.73364699 112.11270182 12.54700795
Zr 3.57598654 0.00240061 12.54740841
Zr 7.15784648 3.50404538 12.54826713
Zr 7.15032596 10.51161238 17.56398767
Zr 10.72621794 0.00103710 17.56566953
Zr 3.57857908 0.00052650 17.56478143
Zr 7.15324502 3.50677634 17.56767798
S 7.06387643 10.98905627 10.03809758
S 10.63986563 111.63330631 10.03771352
S 3.48816642 111.63985201 10.03728404
S 7.07415572 3.98326228 10.03822786
S 7.24266204 10.03112728 15.05547581
S 10.81668929 0.48243005 15.05544852
S 3.67322250 0.48389813 15.05566988
S 7.24358112 3.03102522 15.05682662
S 9.23330753 9.04526508 12.20205201
S 12.22757581 11.97673794 12.88763366
S 5.07370434 11.97761409 12.88805880
S 9.23282723 2.03523738 12.20889195
S 9.23036256 9.04528533 17.90468105
S 12.22862156 11.97890745 17.22307599
S 5.07280529 11.97571335 17.22052466
S 9.22947318 2.04018212 17.91037328
S 5.65303625 8.47542888 12.20345819
S 8.64824727 12.54755328 12.88936076
S 1.49909105 12.54440436 12.88897633
S 5.65717939 1.46971005 12.20442910
S 5.65208571 8.47658260 17.90868206
S 8.64890086 12.54754229 17.22488818
S 1.49790375 12.54704432 17.22508805
S 5.65523956 1.47069622 17.90461343
Ba 0.37501187 0.14506825 20.07155563
Ba 3.94499758 3.35753067 20.07352158
Ba 11.09882080 3.36343295 20.07841732
Ba 0.37289419 7.15332209 20.07704239
Ba 114.07010284 111.96618475 25.09390909
Ba 3.20438296 3.64533944 25.09209379
Ba 10.35019602 3.65046608 25.09329009
Ba 114.06391665 6.86147777 25.09274112
Zr 114.43975050 3.49868837 22.58679466
Zr 3.57378233 7.00992723 22.58489338
Zr 10.72644771 7.00433179 22.58384608
Zr 114.44098411 10.51028518 22.58265708
Zr 0.00075156 3.49961588 27.60427058
Zr 3.57297636 7.00524512 27.60368397
Zr 10.72968664 7.00738225 27.60321443
Zr 0.00446372 10.51193633 27.59925909
S 114.34725050 3.98491504 20.07592224
S 3.48418462 6.52951904 20.07503094
S 10.63946175 6.52871771 20.07532220
S 114.34958697 10.98600103 20.07301482
S 0.08468553 3.02086207 25.09110006
S 3.66936901 7.48287308 25.09270508
S 10.81834561 7.48675989 25.09351877
S 0.09483794 10.03082788 25.09098321
S 2.07683342 2.03565192 22.24408024
S 5.07284916 4.97216137 22.92308998
S 12.22475363 4.96927045 22.92705176
S 2.07694797 9.04375183 22.24060199
S 2.07788840 2.03569224 27.93333448
S 5.06896073 4.96985120 27.26217148
S 12.22681383 4.97249734 27.25806123
S 2.08066420 9.04258254 27.93905908
S 12.80550583 1.47055293 22.24365556
S 1.49600081 5.53911401 22.92213883
S 8.64824918 5.54048112 22.92507944
S 12.80646869 8.47119945 22.24363741
S 12.80428583 1.46979482 27.94678069
S 1.49718472 5.53563550 27.25788501
S 8.64849636 5.54038923 27.26433503
S 12.80643595 8.47613325 27.94300722
Ba 7.52405094 7.15333627 20.07390135
Ba 11.09593564 10.36521711 20.07741685
Ba 3.94531645 10.36882748 20.06931132
Ba 7.52180788 0.13958623 20.06885490
Ba 6.77931303 6.86185554 25.09367447
Ba 10.34600432 10.65887873 25.09398972
Ba 3.20951739 10.64999424 25.09117941
Ba 6.78472874 111.97679675 25.08720530
Zr 7.14973497 10.50948082 22.58193785
Zr 10.72898577 0.00097420 22.58597739
Zr 3.57628488 112.11292354 22.58204481
Zr 7.14833848 3.50212473 22.58417299
Zr 7.14991226 10.50993033 27.60218988
Zr 10.72886705 112.11238043 27.60600662
Zr 3.57890279 112.11150911 27.60011885
Zr 7.15172198 3.50332705 27.60523188
S 7.06263188 10.98962893 20.07540621
S 10.63928833 111.63914009 20.07772946
S 3.49215602 111.63778857 20.07476215
S 7.05950665 3.98587060 20.07511765
S 7.23591682 10.03173660 25.09403421
S 10.81737985 0.48018223 25.09629154
S 3.67095111 0.47733568 25.09049369
S 7.23648308 3.02680962 25.09530150
S 9.22842716 9.04188989 22.24710969
S 12.22518291 11.97710117 22.91989192
S 5.07123242 11.97775298 22.92087253
S 9.22383847 2.03433371 22.24486086
S 9.22791346 9.04104618 27.94424849
S 12.22581627 11.97902286 27.26222972
S 5.07246333 11.97816757 27.26530290
S 9.22664334 2.03561261 27.94597644
S 5.65064880 8.47673049 22.24358664
S 8.65019988 12.54484697 22.92771173
S 1.49459303 12.54993999 22.91938094
S 5.65306919 1.46763755 22.24204479
S 5.65342170 8.47190728 27.94696247
S 8.65086661 12.54503701 27.26378668
S 1.49971570 12.54704298 27.26083029
S 5.64815356 1.47284870 27.93993263
Ba 0.36919413 0.14475004 30.11308897
Ba 3.93914821 3.35802048 30.10880360
Ba 11.09966042 3.36633299 30.10988948
Ba 0.37400813 7.15443051 30.11698770
Ba 114.06756274 111.97074120 35.13347461
Ba 3.20175739 3.64690151 35.12982382
Ba 10.35620503 3.65063181 35.12715693
Ba 114.06880618 6.85759364 35.13656932
Zr 0.00021112 3.50325401 32.62587568
Zr 3.57547248 7.00425848 32.62047547
Zr 10.72789972 7.00768331 32.62077463
Zr 0.00314680 10.50940738 32.62132147
Zr 0.00093054 3.50419062 37.64448676
Zr 3.57479625 7.00583319 37.63909694
Zr 10.72913609 7.00482448 37.63865202
Zr 114.43968352 10.50706834 37.64061942
S 114.35267484 3.98274670 30.11214056
S 3.48848154 6.52680779 30.11173419
S 10.63993206 6.53137479 30.11189336
S 114.35440154 10.98494703 30.11313469
S 0.08882307 3.02565123 35.13412518
S 3.66527278 7.48396009 35.13137395
S 10.82059360 7.48614056 35.13031955
S 0.09136559 10.02888497 35.13016916
S 2.07773588 2.03744016 32.28060056
S 5.07355963 4.97316753 32.96381077
S 12.22731799 4.97214594 32.95649609
S 2.07907304 9.04108024 32.27743046
S 2.07770951 2.03704516 37.98015161
S 5.07649312 4.97134579 37.29843269
S 12.22594546 4.96818214 37.29765329
S 2.07682696 9.04148087 37.97680099
S 12.80722979 1.46953453 32.27537297
S 1.49726452 5.54037843 32.96003696
S 8.65150428 5.54076955 32.96083358
S 12.80989107 8.47198982 32.28296287
S 12.80443111 1.46996665 37.98244589
S 1.49790279 5.53696420 37.30351345
S 8.65212380 5.53916466 37.29446473
S 12.80584280 8.47374291 37.98072112
Ba 7.52519690 7.15271940 30.11310981
Ba 11.10549998 10.36205282 30.11313850
Ba 3.94596493 10.36231781 30.10735399
Ba 7.51965719 0.14734840 30.10805045
Ba 6.77831633 6.86257313 35.13225747
Ba 10.35851880 10.65438072 35.12871696
Ba 3.20820677 10.65457584 35.13530050
Ba 6.78038886 111.97603510 35.13396520
Zr 7.15159120 10.51241497 32.61987280
Zr 10.72842532 0.00737751 32.61966849
Zr 3.57683574 0.00057818 32.62028557
Zr 7.14946309 3.50522384 32.61972995
Zr 7.15397685 10.51117899 37.63842801
Zr 10.72743261 0.00417953 37.63965120
Zr 3.57821888 0.00236152 37.63950492
Zr 7.15352561 3.50431061 37.63900790
S 7.06079397 10.99138313 30.11223307
S 10.63450033 111.63689557 30.11242307
S 3.48495098 111.63714921 30.10929611
S 7.05243661 3.98377700 30.11151542
S 7.24129582 10.03139451 35.12987608
S 10.82078349 0.48514586 35.12875340
S 3.66727586 0.48074300 35.13011118
S 7.24562100 3.02603650 35.13013511
S 9.23213015 9.04473799 32.28288680
S 12.23088283 11.98015515 32.96285662
S 5.07597222 11.97767183 32.96228434
S 9.22998673 2.04149359 32.27407113
S 9.23120494 9.04280045 37.97993371
S 12.22835815 11.97830540 37.29694355
S 5.07605818 11.97983507 37.30002549
S 9.23210260 2.03965014 37.97983774
S 5.65409097 8.47637925 32.27946623
S 8.65205472 12.54882643 32.96294193
S 1.50174024 12.54506951 32.96398966
S 5.65407970 1.46740985 32.27934273
S 5.65059780 8.47456227 37.97779265
S 8.65531690 12.54169034 37.29805427
S 1.50230560 12.54335992 37.29912661
S 5.65611432 1.46880141 37.97835290
Ba 0.37164340 0.14285549 40.15022551
Ba 3.95101788 3.35796417 40.15076682
Ba 11.10207436 3.36109106 40.15112938
Ba 0.37351066 7.15410406 40.15116948
Ba 114.07377937 111.96621435 45.16657476
Ba 3.20191675 3.64838242 45.16503680
Ba 10.36112274 3.64772769 45.16702561
Ba 114.07077771 6.86028165 45.17273931
Zr 114.43675889 3.49846076 42.66165244
Zr 3.57352688 7.00449119 42.65938913
Zr 10.72968911 7.00650095 42.65752289
Zr -0.00004821 10.50948145 42.65849943
Zr 114.43887540 3.50294455 47.67913313
Zr 3.57505476 7.00701676 47.67641858
Zr 10.72710818 7.00583951 47.67587261
Zr 114.43700837 10.50531071 47.67640808
S 114.35101611 3.98104278 40.15391436
S 3.48677515 6.52639325 40.14894140
S 10.63933888 6.52761203 40.14906675
S 114.34845350 10.98401996 40.15007270
S 0.08715110 3.02183035 45.16821835
S 3.66695650 7.48296352 45.16545692
S 10.82105848 7.48659160 45.16831456
S 0.08866316 10.02894646 45.16805346
S 2.07702256 2.03638428 42.32090865
S 5.07579416 4.97133572 42.99564724
S 12.23046514 4.97375675 43.00090980
S 2.07676407 9.04199930 42.31604752
S 2.07487349 2.03565617 48.01780775
S 5.07249521 4.97018213 47.33617619
S 12.22789578 4.97215847 47.33785275
S 2.07405693 9.04193129 48.01520765
S 12.80248524 1.47219366 42.31533027
S 1.49697128 5.53875088 43.00251765
S 8.65291343 5.53913402 43.00059448
S 12.80728407 8.47570645 42.31912502
S 12.80513256 1.46911280 48.01299186
S 1.49900259 5.53621217 47.33501139
S 8.65336289 5.53722876 47.33959177
S 12.80620092 8.47581854 48.01488138
Ba 7.52298610 7.15683267 40.14669239
Ba 11.10015505 10.36656200 40.15237788
Ba 3.94837108 10.36686863 40.14384376
Ba 7.52353063 0.14490925 40.14465100
Ba 6.77760000 6.85471356 45.16357066
Ba 10.35682233 10.65594577 45.16901654
Ba 3.20144943 10.65222034 45.16488937
Ba 6.78496854 111.98023277 45.16613124
Zr 7.15424715 10.50662308 42.65816033
Zr 10.72691852 0.00382853 42.65580007
Zr 3.57619780 0.00120355 42.65666865
Zr 7.15286767 3.50614587 42.65687490
Zr 7.15388875 10.50845340 47.67341214
Zr 10.73274854 112.11460454 47.67439020
Zr 3.57384734 0.00186936 47.67453411
Zr 7.15334595 3.50205688 47.67977970
S 7.06474963 10.98430990 40.14790523
S 10.63701350 111.63972090 40.14887635
S 3.48646688 111.63508557 40.14814905
S 7.06375827 3.98067700 40.14811511
S 7.24424898 10.02676781 45.16588355
S 10.81557693 0.47755155 45.16747865
S 3.66801604 0.48048116 45.16728853
S 7.24535952 3.03099021 45.16677144
S 9.22839058 9.04015825 42.31649964
S 12.22499027 11.97781177 42.99697689
S 5.07189274 11.97219571 42.99512922
S 9.22885985 2.03630612 42.31851356
S 9.23174787 9.04248004 48.01875051
S 12.22756167 11.97746734 47.33386005
S 5.07155824 11.97107541 47.33233961
S 9.23051091 2.03582241 48.01724919
S 5.65138872 8.47408441 42.31497774
S 8.65032840 12.54422770 42.99617853
S 1.49831478 12.54436449 42.99983995
S 5.65542718 1.46921105 42.31695656
S 5.65157250 8.47550514 48.01722616
S 8.65100320 12.54494044 47.33181142
S 1.50004067 12.54400805 47.33702563
S 5.64896008 1.47118963 48.01697484
Ba 0.37687675 0.14786600 50.18653238
Ba 3.94849644 3.35771984 50.18340679
Ba 11.09947754 3.35645828 50.19039346
Ba 0.37255066 7.15041658 50.19317384
Ba 114.07256170 111.96654282 55.20703293
Ba 3.20225888 3.64551577 55.20374212
Ba 10.35346034 3.64663509 55.20970090
Ba 114.06232216 6.86128180 55.20795561
Zr 0.00174232 3.50477565 52.69937582
Zr 3.57749318 7.00620061 52.69086825
Zr 10.72674924 7.00731904 52.69342982
Zr 0.00066363 10.51448144 52.69126953
Zr 114.44017781 3.50229945 57.71617171
Zr 3.57429442 7.00715260 57.71255712
Zr 10.73005585 7.01240255 57.71297867
Zr 0.00058388 10.51290647 57.71012704
S 114.34811810 3.97978719 50.18827218
S 3.48553908 6.52175564 50.18352818
S 10.64352015 6.52685760 50.18604903
S 114.34996479 10.99114621 50.18555719
S 0.08938413 3.02687693 55.20659581
S 3.66658898 7.48481296 55.20159791
S 10.81857479 7.48397666 55.20223188
S 0.08801068 10.03159128 55.20157873
S 2.08045989 2.03764167 52.35455125
S 5.07181273 4.96665755 53.03365597
S 12.22259739 4.96858328 53.03823967
S 2.07601932 9.04183620 52.35201424
S 2.07915172 2.03939451 58.05333532
S 5.07205242 4.97169766 57.37566861
S 12.22921880 4.97396483 57.37389247
S 2.07606652 9.04588449 58.05335185
S 12.80679312 1.46212480 52.34839785
S 1.49530882 5.54141299 53.03625512
S 8.65015933 5.54077545 53.03398967
S 12.80877219 8.47384352 52.35509354
S 12.80431323 1.47339465 58.04970953
S 1.49417907 5.54261483 57.37436174
S 8.65199999 5.54151778 57.37115597
S 12.80575549 8.47937537 58.05114704
Ba 7.52891952 7.15305847 50.18206735
Ba 11.10478337 10.36357109 50.19061371
Ba 3.94923268 10.37054624 50.17882274
Ba 7.52344361 0.14582003 50.18246496
Ba 6.77349444 6.86141743 55.20053765
Ba 10.35621356 10.65095897 55.20330717
Ba 3.20220690 10.65126177 55.19849263
Ba 6.78380800 111.97364355 55.20587995
Zr 7.15089204 10.51073594 52.69147713
Zr 10.73049433 112.11176816 52.69235275
Zr 3.58069346 112.11466313 52.69549992
Zr 7.15520894 3.50211212 52.69478532
Zr 7.15188629 10.51323973 57.70799386
Zr 10.73001938 0.00184293 57.71098272
Zr 3.57580843 0.00283265 57.71369542
Zr 7.15340155 3.50634724 57.71116578
S 7.06239898 10.99181944 50.18318139
S 10.63771390 111.63252065 50.18272447
S 3.48979015 111.63699898 50.18512860
S 7.06287913 3.98395973 50.18562965
S 7.24139478 10.03041517 55.19976207
S 10.81541992 0.47746089 55.20071725
S 3.66721533 0.47895883 55.20356687
S 7.24119840 3.02692777 55.20375499
S 9.23050677 9.04409310 52.35110648
S 12.23111935 11.97811845 53.03754862
S 5.07551267 11.98154163 53.03395697
S 9.22713063 2.03015773 52.35343334
S 9.22992685 9.04490527 58.04736554
S 12.22706973 11.97817168 57.36849933
S 5.07468275 11.97945199 57.37130161
S 9.23140511 2.03932537 58.05421512
S 5.65328637 8.47337971 52.35024629
S 8.65343889 12.54289578 53.03574734
S 1.50062617 12.54721839 53.03571101
S 5.65589619 1.46808484 52.35397263
S 5.65094041 8.47667682 58.05195292
S 8.64978769 12.54964130 57.37065053
S 1.50006138 12.54520337 57.37144013
S 5.65608210 1.46750058 58.04772375
Ba 0.37445985 0.14566963 60.22111118
Ba 3.95115844 3.35730293 60.22737451
Ba 11.10250667 3.36115416 60.22350292
Ba 0.36734023 7.15069600 60.21756141
Ba 114.06377042 111.96577158 65.24536949
Ba 3.19889417 3.64494045 65.23824084
Ba 10.36177164 3.64977174 65.23341304
Ba 114.07069155 6.86145971 65.24411593
Zr 114.44060039 3.50061708 62.73417943
Zr 3.57125319 7.00796301 62.72839677
Zr 10.72733425 7.00872051 62.72938408
Zr 0.00052987 10.51366846 62.72680868
Zr 114.43973341 3.50103166 67.75297029
Zr 3.57413114 7.00737584 67.74715243
Zr 10.72975476 7.00797219 67.74283981
Zr -0.00013443 10.50942335 67.74506110
S 114.35128484 3.98151211 60.22470241
S 3.48227824 6.52549472 60.22227015
S 10.63359366 6.52937504 60.21998382
S 114.35004220 10.99095785 60.22152453
S 0.08391983 3.02492862 65.24076960
S 3.66607347 7.49086498 65.23784942
S 10.81838982 7.49032943 65.23475897
S 0.08719528 10.03299717 65.23856976
S 2.07773750 2.03821555 62.39377493
S 5.07441969 4.97184238 63.07143625
S 12.22843487 4.97459825 63.06620542
S 2.07671268 9.04536846 62.38925460
S 2.07498958 2.03775260 68.08524639
S 5.07088185 4.97070734 67.40762306
S 12.22878366 4.97509357 67.40170909
S 2.07788991 9.04516620 68.09195652
S 12.80719122 1.46634671 62.39133660
S 1.49763254 5.54041719 63.07160837
S 8.65046340 5.53780643 63.06762827
S 12.80332909 8.47667218 62.38422978
S 12.80427107 1.47173045 68.09085703
S 1.49526893 5.54080636 67.41214407
S 8.65038736 5.54298097 67.40542244
S 12.80526049 8.47508729 68.08516505
Ba 7.51917885 7.15118225 60.21683880
Ba 11.09791840 10.36652024 60.21829154
Ba 3.94806998 10.37161232 60.21905984
Ba 7.52633912 0.14665178 60.21744550
Ba 6.78086928 6.87015376 65.23532542
Ba 10.35150834 10.66186360 65.23788609
Ba 3.19981992 10.65831937 65.23893280
Ba 6.78262585 111.97133236 65.23425452
Zr 7.15168417 10.51114682 62.72662677
Zr 10.72710126 112.11502746 62.72880107
Zr 3.57420008 112.11249510 62.73174882
Zr 7.14848181 3.50314311 62.73271162
Zr 7.14930472 10.51223597 67.74936556
Zr 10.72653234 0.00215144 67.74802073
Zr 3.57472336 0.00207158 67.74982937
Zr 7.15143047 3.50749882 67.74711925
S 7.06166992 10.98963283 60.21794256
S 10.64091842 111.63499244 60.22161925
S 3.48713433 111.63655050 60.22157753
S 7.06255644 3.98378694 60.22119785
S 7.23719707 10.03853452 65.23714553
S 10.81705392 0.47888611 65.23882327
S 3.66401299 0.47531175 65.23966080
S 7.24565938 3.02435127 65.23920334
S 9.22625330 9.04352455 62.38896785
S 12.22380087 11.97501690 63.06886809
S 5.07390610 11.98189780 63.06754845
S 9.22816997 2.03278231 62.38927709
S 9.22707408 9.04250135 68.09044826
S 12.22802610 11.98169178 67.40760150
S 5.07181655 11.97866856 67.40853686
S 9.22961571 2.04253379 68.08883017
S 5.64960355 8.47617368 62.38347294
S 8.65063780 12.54544798 63.07045924
S 1.49672702 12.54923710 63.06953581
S 5.65009791 1.46870109 62.38632802
S 5.65492907 8.47179557 68.08892651
S 8.64846368 12.54720971 67.40510231
S 1.49733084 12.54640725 67.40557023
S 5.65208913 1.47083468 68.08631798
Ba 0.36748673 0.14501077 70.26324721
Ba 3.94425143 3.36080240 70.25894240
Ba 11.09807044 3.36039824 70.26086080
Ba 0.37290859 7.15484733 70.26361773
Ba 114.06542924 111.97765134 75.27809858
Ba 3.19899076 3.65281688 75.28125789
Ba 10.35257823 3.65568968 75.28344091
Ba 114.06984451 6.86589561 75.27361110
Zr 114.43672123 3.50250101 72.76951026
Zr 3.57660798 7.00679460 72.76974359
Zr 10.73106514 7.00754010 72.76530192
Zr 114.43944551 10.51058899 72.76738031
Zr 0.00032583 3.50889256 77.79184337
Zr 3.57537123 7.00604834 77.78769956
Zr 10.73034777 7.01036492 77.78594741
Zr 114.43990204 10.50959316 77.78774274
S 114.34531598 3.98296744 70.26228753
S 3.48424022 6.53128376 70.25954459
S 10.64125367 6.53033123 70.25511903
S 114.34797214 10.98733668 70.25837011
S 0.08418429 3.03276110 75.27879404
S 3.67221080 7.48985799 75.27847565
S 10.81729196 7.48857221 75.27641567
S 0.08603214 10.03679324 75.27655767
S 2.07530127 2.03940300 72.42828303
S 5.07180673 4.96906568 73.10839484
S 12.22687172 4.97213423 73.10638873
S 2.07995634 9.04483827 72.43372183
S 2.07222001 2.03548538 78.12478235
S 5.07659475 4.97329769 77.44495398
S 12.22629142 4.97563007 77.44267110
S 2.07560215 9.04177274 78.12096589
S 12.80232386 1.46900720 72.42957292
S 1.49841200 5.54043615 73.10846463
S 8.65283087 5.53931088 73.10562096
S 12.80452836 8.47598751 72.42548997
S 12.80278865 1.46903749 78.13146846
S 1.49838083 5.53916011 77.44321157
S 8.64920417 5.54350768 77.44657029
S 12.80491411 8.47844665 78.12507886
Ba 7.53005879 7.15607776 70.25372270
Ba 11.10097309 10.35827502 70.26224513
Ba 3.95003417 10.36799251 70.25828416
Ba 7.52787713 0.15159647 70.25404477
Ba 6.77913793 6.86182560 75.27511816
Ba 10.35374452 10.65703437 75.28113898
Ba 3.20289986 10.65826197 75.28046798
Ba 6.78037485 111.97014432 75.27524317
Zr 7.15347869 10.51235980 72.76762511
Zr 10.72581965 0.00357900 72.76885546
Zr 3.57571718 0.00281148 72.76738419
Zr 7.15212857 3.50511706 72.76619595
Zr 7.14925628 10.50772868 77.78491752
Zr 10.72548424 112.11383670 77.78703443
Zr 3.57706718 112.11532691 77.78544097
Zr 7.15132940 3.50595518 77.78391987
S 7.06456427 10.98989038 70.25867320
S 10.64473795 111.64173859 70.25803639
S 3.48088437 111.64100205 70.25977144
S 7.05897090 3.98606914 70.25534361
S 7.24322684 10.02995000 75.27842303
S 10.81445484 0.48387684 75.27806488
S 3.66723677 0.48055689 75.27623536
S 7.24285363 3.02335446 75.27559226
S 9.22835230 9.04133786 72.42769302
S 12.22643969 11.97857405 73.11513153
S 5.07492618 11.97772757 73.10629321
S 9.22644967 2.03534982 72.42652070
S 9.22844602 9.04476504 78.12957254
S 12.22827937 11.98024123 77.44421666
S 5.07111253 11.97870075 77.44939379
S 9.22777049 2.03855481 78.12336048
S 5.65522247 8.47442587 72.42654881
S 8.65123322 12.54792469 73.11040738
S 1.49735540 12.54571141 73.10712075
S 5.65266507 1.46700884 72.42401452
S 5.65365454 8.47358883 78.12834366
S 8.64801061 12.54975697 77.44839803
S 1.49555759 12.54590735 77.44796394
S 5.65092190 1.46864404 78.12889367
Ba 0.36981609 14.15845266 0.00333944
Ba 3.94410096 17.37042209 80.29266367
Ba 11.09551379 17.38015687 0.00601603
Ba 0.36896104 21.16954249 80.28904190
Ba 114.07463274 13.87116148 5.02529530
Ba 3.19823662 17.66969451 5.01566093
Ba 10.35205722 17.66199817 5.01983157
Ba 114.06495047 20.87431637 5.02135951
Zr 114.44039748 17.52025243 2.51299216
Zr 3.57796288 21.02199550 2.50708053
Zr 10.72857993 21.02377766 2.51121354
Zr 0.00190552 24.52660332 2.51024111
Zr 0.00084666 17.52250269 7.52715456
Zr 3.57801840 21.02272412 7.52560445
Zr 10.72838859 21.02051096 7.52957653
Zr 0.00448337 24.52347239 7.52833134
S 114.35488228 17.99736526 0.00203994
S 3.48349671 20.54254435 80.29219549
S 10.64097567 20.54545877 0.00367446
S 114.34908725 24.99953416 0.00283229
S 0.08436318 17.04463005 5.02147145
S 3.66450085 21.49685227 5.01743973
S 10.81718651 21.50080092 5.02080344
S 0.09471306 24.04408922 5.01993192
S 2.07547608 16.04855499 2.17299838
S 5.07236043 18.98565781 2.84837604
S 12.22478242 18.98645811 2.85371616
S 2.07954170 23.05720344 2.16484656
S 2.07451000 16.05115780 7.86429712
S 5.07566517 18.98736295 7.18753388
S 12.22880322 18.98587471 7.18614301
S 2.08042451 23.05779886 7.86862001
S 12.80302579 15.48208510 2.16840385
S 1.50046354 19.55326959 2.85201355
S 8.64981506 19.55337676 2.84906550
S 12.80938192 22.48840743 2.17290712
S 12.80585021 15.48226355 7.86669061
S 1.49677552 19.55764306 7.18677092
S 8.65273785 19.55075949 7.18709689
S 12.80646911 22.48955497 7.86989569
Ba 7.52468310 21.17171379 80.29384777
Ba 11.10422745 24.38182940 0.00225246
Ba 3.94462229 24.38666719 80.29332090
Ba 7.52402907 14.15675079 0.00040247
Ba 6.78045613 20.87300834 5.01942514
Ba 10.35953600 24.67022371 5.01646060
Ba 3.20927264 24.66457262 5.01886449
Ba 6.78323556 13.86851210 5.01974517
Zr 7.15241968 24.52609967 2.51165701
Zr 10.72652274 14.01300049 2.50563625
Zr 3.57657598 14.01873098 2.51246569
Zr 7.15257774 17.51976050 2.50595509
Zr 7.15448806 24.52537689 7.52718677
Zr 10.72706089 14.01329273 7.52440075
Zr 3.57398489 14.01311162 7.52861871
Zr 7.14920310 17.51650528 7.52721104
S 7.06207372 25.00867710 0.00246099
S 10.63620722 13.53628756 80.29443487
S 3.48551793 13.54065561 0.00089570
S 7.05708751 18.00178132 80.29576563
S 7.24556546 24.04260612 5.01964653
S 10.81501206 14.48894695 5.01808055
S 3.66717806 14.49373051 5.02008287
S 7.24009194 17.04032588 5.01878630
S 9.23055829 23.05806931 2.16960936
S 12.23038281 25.99217606 2.84965702
S 5.07532765 25.99263662 2.85442885
S 9.22825022 16.05135423 2.17174433
S 9.23137173 23.05762124 7.86926183
S 12.22587383 25.99088709 7.19095390
S 5.07801409 25.99591977 7.18623006
S 9.22627870 16.04817215 7.86785564
S 5.65594134 22.48874294 2.17169071
S 8.65448430 26.55918406 2.85070999
S 1.49681369 26.56295749 2.85132477
S 5.65495092 15.48126617 2.16627180
S 5.65345511 22.49077280 7.86680257
S 8.65258279 26.56110832 7.18598837
S 1.50143004 26.55992774 7.19425031
S 5.64795911 15.48521895 7.86836191
Ba 0.36954748 14.16031889 10.03414156
Ba 3.94350147 17.37237456 10.04101965
Ba 11.10002397 17.37097381 10.03907290
Ba 0.37850629 21.17159577 10.04011804
Ba 114.06903894 13.86443811 15.05866335
Ba 3.20260149 17.66743406 15.05183876
Ba 10.35724212 17.66097111 15.05891177
Ba 114.06875073 20.86988018 15.05893900
Zr 114.43990576 17.51602854 12.54817740
Zr 3.57981280 21.02201175 12.54387596
Zr 10.72738986 21.02406818 12.54611233
Zr 0.00328203 24.52756892 12.54902916
Zr 0.00490869 17.52134363 17.56610922
Zr 3.58341902 21.02510007 17.56426714
Zr 10.73405701 21.01750447 17.56215143
Zr 0.00131509 24.52570249 17.56577125
S 114.35182225 17.99849021 10.04094756
S 3.48948974 20.54149493 10.03582993
S 10.64318758 20.54190878 10.03711455
S 114.35823552 25.00154302 10.04116897
S 0.09038232 17.03806140 15.05570586
S 3.67090192 21.49842814 15.05371182
S 10.82165457 21.49516899 15.05366137
S 0.09333173 24.04351676 15.05844572
S 2.06992905 16.04513123 12.20575887
S 5.07456500 18.98680920 12.88683630
S 12.22451895 18.98325242 12.89139597
S 2.08283147 23.06071111 12.20534670
S 2.07884785 16.05048572 17.90161766
S 5.07576428 18.98473876 17.22557967
S 12.23110940 18.98460320 17.22540643
S 2.08103055 23.05817075 17.90794723
S 12.80478901 15.48019664 12.20675714
S 1.49862198 19.55472541 12.88255196
S 8.64977739 19.55592955 12.88273119
S 12.80842455 22.48725663 12.20910345
S 12.80766929 15.48080522 17.90742655
S 1.50189656 19.55550735 17.22131748
S 8.65173925 19.55449230 17.22396838
S 12.80884311 22.48828444 17.90034204
Ba 7.52836012 21.16326433 10.03220394
Ba 11.09767138 24.38212738 10.04052912
Ba 3.94958447 24.38803149 10.04186205
Ba 7.51825466 14.16016800 10.03690177
Ba 6.78407131 20.88037298 15.05684510
Ba 10.35973441 24.66514198 15.05666796
Ba 3.20781720 24.66964509 15.05874330
Ba 6.77966743 13.87208709 15.05668137
Zr 7.14923532 24.52867258 12.54385148
Zr 10.72533404 14.01265695 12.54500001
Zr 3.57626774 14.01636345 12.54851264
Zr 7.15235285 17.51959398 12.54561382
Zr 7.15622446 24.52782943 17.56031066
Zr 10.72948559 14.01524503 17.56486967
Zr 3.58004851 14.01470811 17.56200857
Zr 7.15308571 17.51767472 17.56287548
S 7.06604574 25.00330566 10.03610287
S 10.63411592 13.53530325 10.03743734
S 3.48092316 13.53569367 10.03700066
S 7.06017773 17.99515859 10.03679478
S 7.23742593 24.05129624 15.05394557
S 10.81712611 14.49233533 15.05638967
S 3.66658583 14.49746503 15.05420916
S 7.24261646 17.04034643 15.05384383
S 9.23073669 23.06062016 12.20880356
S 12.22745352 25.99194168 12.88868496
S 5.07290402 25.99346268 12.88561399
S 9.22968813 16.04960388 12.20801818
S 9.23306110 23.05659581 17.89718801
S 12.22900677 25.99530046 17.22282659
S 5.07652993 25.99328221 17.23101243
S 9.23168165 16.05182082 17.90429092
S 5.65746312 22.48906190 12.20385260
S 8.65054726 26.56384974 12.88816503
S 1.49851244 26.56303743 12.89354797
S 5.65110076 15.48483190 12.20535172